Periodic-Tools output

160 atoms
160 bonds
248 angles
320 dihedrals 
192 impropers

20 atom types
20 bond types
31 angle types
40 dihedral types
24 improper types

0 7.0842 xlo xhi
0 18.3468 ylo yhi
0 11.4349617149 zlo zhi
1.1234174947298332e-15 -1.6046368992000009 8.053055016063572e-16 xy xz yz

Masses

1 15.999
2 12.011
3 14.007
4 12.011
5 12.011
6 1.008
7 12.011
8 1.008
9 12.011
10 15.999
11 1.008
12 12.011
13 1.008
14 12.011
15 1.008
16 1.008
17 12.011
18 1.008
19 1.008
20 1.008

Pair Coeffs

1 0.12110175265822803 2.9354413159434865
2 0.07362139711879305 3.0642583119897875
3 0.20666777819315857 2.948469876152285
4 0.07362139711879306 3.3016334362276196
5 0.07362139711879304 3.495214174125108
6 0.02711902776620349 2.3923326175621953
7 0.07362139711879304 3.5161707401942555
8 0.02711902776620349 2.367937266551633
9 0.07362139711879305 3.271175220765419
10 0.16034068410119082 2.8768012131984433
11 0.0 10.0
12 0.07362139711879304 3.5161707401942555
13 0.02711902776620349 2.367937266551633
14 0.07362139711879304 3.495214174125108
15 0.02711902776620349 2.3923326175621953
16 0.0 10.0
17 0.07362139711879304 3.5219518896749706
18 0.027119027766203486 2.3276463147192072
19 0.027119027766203486 2.3276463147192072
20 0.027119027766203486 2.3276463147192072

Bond Coeffs

1 786.4530366828672 1.213590862415616
2 346.9900078448934 1.370927666725146
3 312.4456113258144 1.4120277404418646
4 373.21888801212367 1.3952741832297557
5 373.21888801212367 1.3952741832297557
6 387.4862112558286 1.0828116756350359
7 387.4862112558286 1.0828116756350359
8 414.346297273399 1.3871324019549074
9 414.346297273399 1.3871324019549074
10 381.31215928453287 1.0846784592006673
11 381.31215928453287 1.0846784592006673
12 381.5978302073735 1.3899511529150244
13 381.5978302073735 1.3899511529150244
14 358.0590826126696 1.363019220728505
15 605.4828917104414 0.9582407040982889
16 515.3984134730451 1.0072467328802983
17 225.124605808299 1.5168893643743604
18 359.5234324846559 1.0914841179789885
19 359.5234324846559 1.0914841179789885
20 359.5234324846559 1.0914841179789885

Angle Coeffs

1 61.60002954494314 123.97026179225728
2 59.93591090508764 122.51733567385719
3 72.14859327166968 113.51240252848103
4 94.77994753264313 128.99967672018403
5 36.038910804466646 115.99933978614652
6 33.31799915340849 115.0009829635104
7 105.72153517313828 120.55652005292389
8 105.72153517313828 120.55652005292389
9 121.7894756300547 118.88695987776921
10 33.68712084016146 119.82074345313771
11 33.68712084016146 119.82074345313771
12 99.6332916823927 120.4865226103909
13 99.6332916823927 120.4865226103909
14 33.69191479347772 119.69273392944024
15 33.69191479347772 119.69273392944024
16 34.39449036323571 119.91859185052299
17 34.39449036323571 119.91859185052299
18 98.77765132678469 120.3948725186089
19 98.77765132678469 120.3948725186089
20 34.23400849061766 119.6865355561637
21 34.23400849061766 119.6865355561637
22 94.8817972354916 120.32487511631473
23 94.8817972354916 120.32487511631473
24 128.22161478047013 119.35024974690621
25 73.14191357295094 109.6919923723331
26 55.164519127508946 110.0729820496944
27 55.164519127508946 110.0729820496944
28 55.164519127508946 110.0729820496944
29 29.79100191131055 108.86428265277569
30 29.79100191131055 108.86428265277569
31 29.79100191131055 108.86428265277569

Dihedral Coeffs

1 -0.8504288651945506 4.596365660504779 -3.062411047554015e-07 -0.4635857163042065
2 2.4668418616935948 4.696751088807361 -3.2546767334177818e-06 -7.366730500219885e-07
3 0.9083353108672 0.2979420952892 0.05920054561332 0.0
4 0.9083353108672 0.2979420952892 0.05920054561332 0.0
5 0.9083353108672 0.2979420952892 0.05920054561332 0.0
6 -1.2731456233470364e-07 1.125258629873327 -4.26205069168021e-07 0.34976218346634796
7 -1.2731456233470364e-07 1.125258629873327 -4.26205069168021e-07 0.34976218346634796
8 0.0 0.0 0.05329877540126 0.0
9 0.0 0.0 0.05329877540126 0.0
10 0.0 0.0 0.05329877540126 0.0
11 0.0 7.323860198152 0.0 0.0
12 0.0 7.323860198152 0.0 0.0
13 0.0 7.323860198152 0.0 0.0
14 0.0 7.323860198152 0.0 0.0
15 -0.09632742137485659 2.2562643866008605 -9.192664591099427e-07 2.8630298012275333e-06
16 0.0 7.323860198152 0.0 0.0
17 0.0 7.323860198152 0.0 0.0
18 0.0 7.323860198152 0.0 0.0
19 0.0 7.323860198152 0.0 0.0
20 8.075343745258126e-08 0.1119187483334608 1.7871449323934034e-07 -0.10861236329674952
21 0.0 7.323860198152 0.0 0.0
22 0.0 7.323860198152 0.0 0.0
23 0.0 7.323860198152 0.0 0.0
24 0.0 7.323860198152 0.0 0.0
25 0.0 7.323860198152 0.0 0.0
26 0.0 7.323860198152 0.0 0.0
27 0.0 7.323860198152 0.0 0.0
28 0.0 7.323860198152 0.0 0.0
29 0.0 1.6566061180084 0.0 0.0
30 0.0 7.323860198152 0.0 0.0
31 0.0 7.323860198152 0.0 0.0
32 0.0 7.323860198152 0.0 0.0
33 0.0 7.323860198152 0.0 0.0
34 0.0 7.323860198152 0.0 0.0
35 0.0 7.323860198152 0.0 0.0
36 0.0 7.323860198152 0.0 0.0
37 0.0 1.6566061180084 0.0 0.0
38 0.0 7.323860198152 0.0 0.0
39 8.075343745258126e-08 0.1119187483334608 1.7871449323934034e-07 -0.10861236329674952
40 -0.09143597101749522 3.6180939935468452 2.6753709249923514e-06 -9.366141711716062e-06

Improper Coeffs

1 0.3666666666666667 -1 2
2 0.3666666666666667 -1 2
3 0.3666666666666667 -1 2
4 0.3333333333333333 -1 2
5 0.3333333333333333 -1 2
6 0.3333333333333333 -1 2
7 0.3666666666666667 -1 2
8 0.3666666666666667 -1 2
9 0.3666666666666667 -1 2
10 0.3666666666666667 -1 2
11 0.3666666666666667 -1 2
12 0.3666666666666667 -1 2
13 0.3666666666666667 -1 2
14 0.3666666666666667 -1 2
15 0.3666666666666667 -1 2
16 0.3666666666666667 -1 2
17 0.3666666666666667 -1 2
18 0.3666666666666667 -1 2
19 0.3666666666666667 -1 2
20 0.3666666666666667 -1 2
21 0.3666666666666667 -1 2
22 0.3666666666666667 -1 2
23 0.3666666666666667 -1 2
24 0.3666666666666667 -1 2

Atoms

1 1 1 -0.578255 -0.07160399559999998 4.514872278 7.9065899282
2 1 2 0.660025 1.1228853568999997 4.434146358 8.2330580851
3 1 3 -0.450511 2.1157767751999996 5.040691566 7.5567944493
4 1 4 0.22733 2.0183788011999995 5.887396386 6.4269058823
5 1 5 -0.173499 3.1027017852999994 6.736578024 6.1870003855
6 1 6 0.120412 3.8556672070999998 6.71125944 6.7969412433
7 1 7 -0.22757 3.0978488043999994 7.602822186 5.1038808118
8 1 8 0.12189 3.8632722998999998 8.2010196 4.9707778575
9 1 9 0.320843 2.0022100417999997 7.630525854 4.2400838039
10 1 10 -0.525328 1.9326530078999997 8.491724646 3.1783476087
11 1 11 0.40491 2.7370285067999998 8.81196804 2.9605115879999997
12 1 12 -0.22757 0.9298337901999999 6.765290766 4.4599781177
13 1 13 0.12189 0.17762991139999998 6.76905186 3.8329991668
14 1 14 -0.173499 0.9366997064999999 5.891983086 5.5438981386
15 1 15 0.120412 0.19211896909999998 5.28571308 5.6683105221
16 1 16 0.298589 2.9419414625999996 4.94721462 7.901558545
17 1 17 -0.522774 1.5644490109999998 3.624502074 9.4224084531
18 1 18 0.160902 2.4579726367999997 3.81796908 9.6945605419
19 1 19 0.160902 0.9761448423999999 3.79870494 10.1576764914
20 1 20 0.160901 1.5128081776999998 2.66395536 9.2108616614
21 2 1 -0.578255 1.2067486467999997 18.274972278 9.2458526442
22 2 2 0.660025 0.012259294199999998 18.194246358 8.9193844873
23 2 3 -0.450511 -0.9806321239999999 0.453991566 9.5956481231
24 2 4 0.22733 -0.8832341499999999 1.300696386 10.7255366901
25 2 5 -0.173499 5.116642865899999 2.149878024 10.9654421869
26 2 6 0.120412 4.3636774440999995 2.12455944 10.355501329
27 2 7 -0.22757 6.726132745999999 3.016122186 0.6136000455999994
28 2 8 0.12189 5.960709250499999 3.6143196 0.7467029999999995
29 2 9 0.320843 0.7375715085999999 3.043825854 1.4773970536
30 2 10 -0.525328 0.8071285424999999 3.905024646 2.5391332488
31 2 11 0.40491 0.0027530435999999995 4.22526804 2.7569692695
32 2 12 -0.22757 1.8099477601999998 2.178590766 1.2575027397999998
33 2 13 0.12189 2.5621516389999996 2.18235186 1.8844816905999997
34 2 14 -0.173499 1.8030818438999998 1.305283086 0.17358271879999984
35 2 15 0.120412 2.5476625812999996 0.69901308 0.04917033539999976
36 2 16 0.298589 5.277403188499999 0.36051462 9.2508840274
37 2 17 -0.522774 -0.42930435989999993 17.384602074 7.7300341193
38 2 18 0.160902 5.761372014299999 17.57806908 7.4578820304999995
39 2 19 0.160902 0.15899980869999997 17.55880494 6.994766081
40 2 20 0.160901 -0.37766352649999996 16.42405536 7.941580911
41 3 1 -0.578255 5.5511670963999995 4.658527722 3.5283717867999997
42 3 2 0.660025 4.356677743899999 4.739253642 3.2019036297999994
43 3 3 -0.450511 3.3637863255999996 4.132708434 3.8781672655999997
44 3 4 0.22733 3.4611842995999997 3.286003614 5.0080558327
45 3 5 -0.173499 2.3768613154999993 2.436821976 5.2479613294
46 3 6 0.120412 1.6238958936999999 2.46214056 4.6380204716
47 3 7 -0.22757 2.3817142963999998 1.570577814 6.3310809031
48 3 8 0.12189 1.6162908008999999 0.9723804 6.4641838574
49 3 9 0.320843 3.4773530589999995 1.542874146 7.194877911
50 3 10 -0.525328 3.5469100928999997 0.681675354 8.2566141063
51 3 11 0.40491 2.7425345939999994 0.36143196 8.4744501269
52 3 12 -0.22757 4.549729310599999 2.408109234 6.9749835972
53 3 13 0.12189 5.301933189399999 2.40434814 7.6019625480999995
54 3 14 -0.173499 4.542863394299999 3.281416914 5.8910635763
55 3 15 0.120412 5.287444131699999 3.88768692 5.7666511927999995
56 3 16 0.298589 2.5376216380999996 4.22618538 3.5334031698999997
57 3 17 -0.522774 3.9151140896999994 5.548897926 2.0125532617999995
58 3 18 0.160902 3.0215904638999995 5.35543092 1.7404011729999997
59 3 19 0.160902 4.503418258399999 5.37469506 1.2772852235999996
60 3 20 0.160901 3.9667549230999994 6.50944464 2.2241000535999995
61 4 1 -0.578255 4.272814453999999 9.245227722 2.1891090706999994
62 4 2 0.660025 5.4673038064999995 9.325953642 2.5155772276999997
63 4 3 -0.450511 6.460195224799999 8.719408434 1.8393135917999994
64 4 4 0.22733 6.362797250799999 7.872703614 0.7094250247999995
65 4 5 -0.173499 3.6764812568999994 7.868116914 11.2613789961
66 4 6 0.120412 2.9319005194999996 8.47438692 11.3857913795
67 4 7 -0.22757 3.6696153405999996 6.994809234 10.1774589751
68 4 8 0.12189 2.9174114617999996 6.99104814 9.5504800243
69 4 9 0.320843 4.741991592199999 6.129574146 9.9575646614
70 4 10 -0.525328 4.672434558299999 5.268375354 8.8958284661
71 4 11 0.40491 5.476810057199999 4.94813196 8.6779924455
72 4 12 -0.22757 -1.2465696451999997 6.157277814 10.8213616693
73 4 13 0.12189 -0.48114614969999997 5.5590804 10.6882587149
74 4 14 -0.173499 0.36292023489999997 7.023521976 0.46951952799999996
75 4 15 0.120412 1.1158856566999997 7.04884056 1.0794603859
76 4 16 0.298589 0.20215991219999999 8.81288538 2.1840776875
77 4 17 -0.522774 5.908867460699999 10.135597926 3.7049275955999996
78 4 18 0.160902 -0.2818089134999999 9.94213092 3.9770796844
79 4 19 0.160902 5.320563291999999 9.96139506 4.440195633899999
80 4 20 0.160901 5.857226627299999 11.09614464 3.4933808038999996
81 5 1 -0.578255 1.2067486467999997 9.101572278 9.2458526442
82 5 2 0.660025 0.012259294199999998 9.020846358 8.9193844873
83 5 3 -0.450511 -0.9806321239999999 9.627391566 9.5956481231
84 5 4 0.22733 -0.8832341499999999 10.474096386 10.7255366901
85 5 5 -0.173499 5.116642865899999 11.323278024 10.9654421869
86 5 6 0.120412 4.3636774440999995 11.29795944 10.355501329
87 5 7 -0.22757 6.726132745999999 12.189522186 0.6136000455999994
88 5 8 0.12189 5.960709250499999 12.7877196 0.7467029999999995
89 5 9 0.320843 0.7375715085999999 12.217225854 1.4773970536
90 5 10 -0.525328 0.8071285424999999 13.078424646 2.5391332488
91 5 11 0.40491 0.0027530435999999995 13.39866804 2.7569692695
92 5 12 -0.22757 1.8099477601999998 11.351990766 1.2575027397999998
93 5 13 0.12189 2.5621516389999996 11.35575186 1.8844816905999997
94 5 14 -0.173499 1.8030818438999998 10.478683086 0.17358271879999984
95 5 15 0.120412 2.5476625812999996 9.87241308 0.04917033539999976
96 5 16 0.298589 5.277403188499999 9.53391462 9.2508840274
97 5 17 -0.522774 -0.42930435989999993 8.211202074 7.7300341193
98 5 18 0.160902 5.761372014299999 8.40466908 7.4578820304999995
99 5 19 0.160902 0.15899980869999997 8.38540494 6.994766081
100 5 20 0.160901 -0.37766352649999996 7.25065536 7.941580911
101 6 1 -0.578255 4.272814453999999 0.071827722 2.1891090706999994
102 6 2 0.660025 5.4673038064999995 0.152553642 2.5155772276999997
103 6 3 -0.450511 6.460195224799999 17.892808434 1.8393135917999994
104 6 4 0.22733 6.362797250799999 17.046103614 0.7094250247999995
105 6 5 -0.173499 0.36292023489999997 16.196921976 0.46951952799999996
106 6 6 0.120412 1.1158856566999997 16.22224056 1.0794603859
107 6 7 -0.22757 -1.2465696451999997 15.330677814 10.8213616693
108 6 8 0.12189 -0.48114614969999997 14.7324804 10.6882587149
109 6 9 0.320843 4.741991592199999 15.302974146 9.9575646614
110 6 10 -0.525328 4.672434558299999 14.441775354 8.8958284661
111 6 11 0.40491 5.476810057199999 14.12153196 8.6779924455
112 6 12 -0.22757 3.6696153405999996 16.168209234 10.1774589751
113 6 13 0.12189 2.9174114617999996 16.16444814 9.5504800243
114 6 14 -0.173499 3.6764812568999994 17.041516914 11.2613789961
115 6 15 0.120412 2.9319005194999996 17.64778692 11.3857913795
116 6 16 0.298589 0.20215991219999999 17.98628538 2.1840776875
117 6 17 -0.522774 5.908867460699999 0.962197926 3.7049275955999996
118 6 18 0.160902 -0.2818089134999999 0.76873092 3.9770796844
119 6 19 0.160902 5.320563291999999 0.78799506 4.440195633899999
120 6 20 0.160901 5.857226627299999 1.92274464 3.4933808038999996
121 7 1 -0.578255 -0.07160399559999998 13.688272278 7.9065899282
122 7 2 0.660025 1.1228853568999997 13.607546358 8.2330580851
123 7 3 -0.450511 2.1157767751999996 14.214091566 7.5567944493
124 7 4 0.22733 2.0183788011999995 15.060796386 6.4269058823
125 7 5 -0.173499 3.1027017852999994 15.909978024 6.1870003855
126 7 6 0.120412 3.8556672070999998 15.88465944 6.7969412433
127 7 7 -0.22757 3.0978488043999994 16.776222186 5.1038808118
128 7 8 0.12189 3.8632722998999998 17.3744196 4.9707778575
129 7 9 0.320843 2.0022100417999997 16.803925854 4.2400838039
130 7 10 -0.525328 1.9326530078999997 17.665124646 3.1783476087
131 7 11 0.40491 2.7370285067999998 17.98536804 2.9605115879999997
132 7 12 -0.22757 0.9298337901999999 15.938690766 4.4599781177
133 7 13 0.12189 0.17762991139999998 15.94245186 3.8329991668
134 7 14 -0.173499 0.9366997064999999 15.065383086 5.5438981386
135 7 15 0.120412 0.19211896909999998 14.45911308 5.6683105221
136 7 16 0.298589 2.9419414625999996 14.12061462 7.901558545
137 7 17 -0.522774 1.5644490109999998 12.797902074 9.4224084531
138 7 18 0.160902 2.4579726367999997 12.99136908 9.6945605419
139 7 19 0.160902 0.9761448423999999 12.97210494 10.1576764914
140 7 20 0.160901 1.5128081776999998 11.83735536 9.2108616614
141 8 1 -0.578255 5.5511670963999995 13.831927722 3.5283717867999997
142 8 2 0.660025 4.356677743899999 13.912653642 3.2019036297999994
143 8 3 -0.450511 3.3637863255999996 13.306108434 3.8781672655999997
144 8 4 0.22733 3.4611842995999997 12.459403614 5.0080558327
145 8 5 -0.173499 2.3768613154999993 11.610221976 5.2479613294
146 8 6 0.120412 1.6238958936999999 11.63554056 4.6380204716
147 8 7 -0.22757 2.3817142963999998 10.743977814 6.3310809031
148 8 8 0.12189 1.6162908008999999 10.1457804 6.4641838574
149 8 9 0.320843 3.4773530589999995 10.716274146 7.194877911
150 8 10 -0.525328 3.5469100928999997 9.855075354 8.2566141063
151 8 11 0.40491 2.7425345939999994 9.53483196 8.4744501269
152 8 12 -0.22757 4.549729310599999 11.581509234 6.9749835972
153 8 13 0.12189 5.301933189399999 11.57774814 7.6019625480999995
154 8 14 -0.173499 4.542863394299999 12.454816914 5.8910635763
155 8 15 0.120412 5.287444131699999 13.06108692 5.7666511927999995
156 8 16 0.298589 2.5376216380999996 13.39958538 3.5334031698999997
157 8 17 -0.522774 3.9151140896999994 14.722297926 2.0125532617999995
158 8 18 0.160902 3.0215904638999995 14.52883092 1.7404011729999997
159 8 19 0.160902 4.503418258399999 14.54809506 1.2772852235999996
160 8 20 0.160901 3.9667549230999994 15.68284464 2.2241000535999995

Bonds

1 1 1 2
2 2 2 3
3 3 3 4
4 4 4 5
5 5 14 4
6 6 5 6
7 7 14 15
8 8 5 7
9 9 12 14
10 10 7 8
11 11 12 13
12 12 7 9
13 13 9 12
14 14 9 10
15 15 10 11
16 16 3 16
17 17 2 17
18 18 17 18
19 19 17 19
20 20 17 20
21 1 21 22
22 2 22 23
23 3 23 24
24 4 24 25
25 5 34 24
26 6 25 26
27 7 34 35
28 8 25 27
29 9 32 34
30 10 27 28
31 11 32 33
32 12 27 29
33 13 29 32
34 14 29 30
35 15 30 31
36 16 23 36
37 17 22 37
38 18 37 38
39 19 37 39
40 20 37 40
41 1 41 42
42 2 42 43
43 3 43 44
44 4 44 45
45 5 54 44
46 6 45 46
47 7 54 55
48 8 45 47
49 9 52 54
50 10 47 48
51 11 52 53
52 12 47 49
53 13 49 52
54 14 49 50
55 15 50 51
56 16 43 56
57 17 42 57
58 18 57 58
59 19 57 59
60 20 57 60
61 1 61 62
62 2 62 63
63 3 63 64
64 4 64 65
65 5 74 64
66 6 65 66
67 7 74 75
68 8 65 67
69 9 72 74
70 10 67 68
71 11 72 73
72 12 67 69
73 13 69 72
74 14 69 70
75 15 70 71
76 16 63 76
77 17 62 77
78 18 77 78
79 19 77 79
80 20 77 80
81 1 81 82
82 2 82 83
83 3 83 84
84 4 84 85
85 5 94 84
86 6 85 86
87 7 94 95
88 8 85 87
89 9 92 94
90 10 87 88
91 11 92 93
92 12 87 89
93 13 89 92
94 14 89 90
95 15 90 91
96 16 83 96
97 17 82 97
98 18 97 98
99 19 97 99
100 20 97 100
101 1 101 102
102 2 102 103
103 3 103 104
104 4 104 105
105 5 114 104
106 6 105 106
107 7 114 115
108 8 105 107
109 9 112 114
110 10 107 108
111 11 112 113
112 12 107 109
113 13 109 112
114 14 109 110
115 15 110 111
116 16 103 116
117 17 102 117
118 18 117 118
119 19 117 119
120 20 117 120
121 1 121 122
122 2 122 123
123 3 123 124
124 4 124 125
125 5 134 124
126 6 125 126
127 7 134 135
128 8 125 127
129 9 132 134
130 10 127 128
131 11 132 133
132 12 127 129
133 13 129 132
134 14 129 130
135 15 130 131
136 16 123 136
137 17 122 137
138 18 137 138
139 19 137 139
140 20 137 140
141 1 141 142
142 2 142 143
143 3 143 144
144 4 144 145
145 5 154 144
146 6 145 146
147 7 154 155
148 8 145 147
149 9 152 154
150 10 147 148
151 11 152 153
152 12 147 149
153 13 149 152
154 14 149 150
155 15 150 151
156 16 143 156
157 17 142 157
158 18 157 158
159 19 157 159
160 20 157 160

Angles

1 1 1 2 3
2 2 1 2 17
3 3 3 2 17
4 4 2 3 4
5 5 2 3 16
6 6 4 3 16
7 7 3 4 5
8 8 3 4 14
9 9 5 4 14
10 10 4 5 6
11 11 4 14 15
12 12 4 5 7
13 13 4 14 12
14 14 6 5 7
15 15 12 14 15
16 16 5 7 8
17 17 13 12 14
18 18 5 7 9
19 19 9 12 14
20 20 8 7 9
21 21 9 12 13
22 22 7 9 10
23 23 10 9 12
24 24 7 9 12
25 25 9 10 11
26 26 2 17 18
27 27 2 17 19
28 28 2 17 20
29 29 18 17 19
30 30 18 17 20
31 31 19 17 20
32 1 21 22 23
33 2 21 22 37
34 3 23 22 37
35 4 22 23 24
36 5 22 23 36
37 6 24 23 36
38 7 23 24 25
39 8 23 24 34
40 9 25 24 34
41 10 24 25 26
42 11 24 34 35
43 12 24 25 27
44 13 24 34 32
45 14 26 25 27
46 15 32 34 35
47 16 25 27 28
48 17 33 32 34
49 18 25 27 29
50 19 29 32 34
51 20 28 27 29
52 21 29 32 33
53 22 27 29 30
54 23 30 29 32
55 24 27 29 32
56 25 29 30 31
57 26 22 37 38
58 27 22 37 39
59 28 22 37 40
60 29 38 37 39
61 30 38 37 40
62 31 39 37 40
63 1 41 42 43
64 2 41 42 57
65 3 43 42 57
66 4 42 43 44
67 5 42 43 56
68 6 44 43 56
69 7 43 44 45
70 8 43 44 54
71 9 45 44 54
72 10 44 45 46
73 11 44 54 55
74 12 44 45 47
75 13 44 54 52
76 14 46 45 47
77 15 52 54 55
78 16 45 47 48
79 17 53 52 54
80 18 45 47 49
81 19 49 52 54
82 20 48 47 49
83 21 49 52 53
84 22 47 49 50
85 23 50 49 52
86 24 47 49 52
87 25 49 50 51
88 26 42 57 58
89 27 42 57 59
90 28 42 57 60
91 29 58 57 59
92 30 58 57 60
93 31 59 57 60
94 1 61 62 63
95 2 61 62 77
96 3 63 62 77
97 4 62 63 64
98 5 62 63 76
99 6 64 63 76
100 7 63 64 65
101 8 63 64 74
102 9 65 64 74
103 10 64 65 66
104 11 64 74 75
105 12 64 65 67
106 13 64 74 72
107 14 66 65 67
108 15 72 74 75
109 16 65 67 68
110 17 73 72 74
111 18 65 67 69
112 19 69 72 74
113 20 68 67 69
114 21 69 72 73
115 22 67 69 70
116 23 70 69 72
117 24 67 69 72
118 25 69 70 71
119 26 62 77 78
120 27 62 77 79
121 28 62 77 80
122 29 78 77 79
123 30 78 77 80
124 31 79 77 80
125 1 81 82 83
126 2 81 82 97
127 3 83 82 97
128 4 82 83 84
129 5 82 83 96
130 6 84 83 96
131 7 83 84 85
132 8 83 84 94
133 9 85 84 94
134 10 84 85 86
135 11 84 94 95
136 12 84 85 87
137 13 84 94 92
138 14 86 85 87
139 15 92 94 95
140 16 85 87 88
141 17 93 92 94
142 18 85 87 89
143 19 89 92 94
144 20 88 87 89
145 21 89 92 93
146 22 87 89 90
147 23 90 89 92
148 24 87 89 92
149 25 89 90 91
150 26 82 97 98
151 27 82 97 99
152 28 82 97 100
153 29 98 97 99
154 30 98 97 100
155 31 99 97 100
156 1 101 102 103
157 2 101 102 117
158 3 103 102 117
159 4 102 103 104
160 5 102 103 116
161 6 104 103 116
162 7 103 104 105
163 8 103 104 114
164 9 105 104 114
165 10 104 105 106
166 11 104 114 115
167 12 104 105 107
168 13 104 114 112
169 14 106 105 107
170 15 112 114 115
171 16 105 107 108
172 17 113 112 114
173 18 105 107 109
174 19 109 112 114
175 20 108 107 109
176 21 109 112 113
177 22 107 109 110
178 23 110 109 112
179 24 107 109 112
180 25 109 110 111
181 26 102 117 118
182 27 102 117 119
183 28 102 117 120
184 29 118 117 119
185 30 118 117 120
186 31 119 117 120
187 1 121 122 123
188 2 121 122 137
189 3 123 122 137
190 4 122 123 124
191 5 122 123 136
192 6 124 123 136
193 7 123 124 125
194 8 123 124 134
195 9 125 124 134
196 10 124 125 126
197 11 124 134 135
198 12 124 125 127
199 13 124 134 132
200 14 126 125 127
201 15 132 134 135
202 16 125 127 128
203 17 133 132 134
204 18 125 127 129
205 19 129 132 134
206 20 128 127 129
207 21 129 132 133
208 22 127 129 130
209 23 130 129 132
210 24 127 129 132
211 25 129 130 131
212 26 122 137 138
213 27 122 137 139
214 28 122 137 140
215 29 138 137 139
216 30 138 137 140
217 31 139 137 140
218 1 141 142 143
219 2 141 142 157
220 3 143 142 157
221 4 142 143 144
222 5 142 143 156
223 6 144 143 156
224 7 143 144 145
225 8 143 144 154
226 9 145 144 154
227 10 144 145 146
228 11 144 154 155
229 12 144 145 147
230 13 144 154 152
231 14 146 145 147
232 15 152 154 155
233 16 145 147 148
234 17 153 152 154
235 18 145 147 149
236 19 149 152 154
237 20 148 147 149
238 21 149 152 153
239 22 147 149 150
240 23 150 149 152
241 24 147 149 152
242 25 149 150 151
243 26 142 157 158
244 27 142 157 159
245 28 142 157 160
246 29 158 157 159
247 30 158 157 160
248 31 159 157 160

Dihedrals

1 1 1 2 3 4
2 2 1 2 3 16
3 3 1 2 17 18
4 4 1 2 17 19
5 5 1 2 17 20
6 6 2 3 4 5
7 7 2 3 4 14
8 8 3 2 17 18
9 9 3 2 17 19
10 10 3 2 17 20
11 11 3 4 5 6
12 12 3 4 5 7
13 13 3 4 14 12
14 14 3 4 14 15
15 15 4 3 2 17
16 16 4 5 7 8
17 17 4 5 7 9
18 18 4 14 12 9
19 19 4 14 12 13
20 20 5 4 3 16
21 21 5 4 14 12
22 22 5 4 14 15
23 23 5 7 9 10
24 24 5 7 9 12
25 25 6 5 4 14
26 26 6 5 7 8
27 27 6 5 7 9
28 28 7 5 4 14
29 29 7 9 10 11
30 30 7 9 12 13
31 31 7 9 12 14
32 32 8 7 9 10
33 33 8 7 9 12
34 34 9 12 14 15
35 35 10 9 12 13
36 36 10 9 12 14
37 37 11 10 9 12
38 38 13 12 14 15
39 39 14 4 3 16
40 40 16 3 2 17
41 1 21 22 23 24
42 2 21 22 23 36
43 3 21 22 37 38
44 4 21 22 37 39
45 5 21 22 37 40
46 6 22 23 24 25
47 7 22 23 24 34
48 8 23 22 37 38
49 9 23 22 37 39
50 10 23 22 37 40
51 11 23 24 25 26
52 12 23 24 25 27
53 13 23 24 34 32
54 14 23 24 34 35
55 15 24 23 22 37
56 16 24 25 27 28
57 17 24 25 27 29
58 18 24 34 32 29
59 19 24 34 32 33
60 20 25 24 23 36
61 21 25 24 34 32
62 22 25 24 34 35
63 23 25 27 29 30
64 24 25 27 29 32
65 25 26 25 24 34
66 26 26 25 27 28
67 27 26 25 27 29
68 28 27 25 24 34
69 29 27 29 30 31
70 30 27 29 32 33
71 31 27 29 32 34
72 32 28 27 29 30
73 33 28 27 29 32
74 34 29 32 34 35
75 35 30 29 32 33
76 36 30 29 32 34
77 37 31 30 29 32
78 38 33 32 34 35
79 39 34 24 23 36
80 40 36 23 22 37
81 1 41 42 43 44
82 2 41 42 43 56
83 3 41 42 57 58
84 4 41 42 57 59
85 5 41 42 57 60
86 6 42 43 44 45
87 7 42 43 44 54
88 8 43 42 57 58
89 9 43 42 57 59
90 10 43 42 57 60
91 11 43 44 45 46
92 12 43 44 45 47
93 13 43 44 54 52
94 14 43 44 54 55
95 15 44 43 42 57
96 16 44 45 47 48
97 17 44 45 47 49
98 18 44 54 52 49
99 19 44 54 52 53
100 20 45 44 43 56
101 21 45 44 54 52
102 22 45 44 54 55
103 23 45 47 49 50
104 24 45 47 49 52
105 25 46 45 44 54
106 26 46 45 47 48
107 27 46 45 47 49
108 28 47 45 44 54
109 29 47 49 50 51
110 30 47 49 52 53
111 31 47 49 52 54
112 32 48 47 49 50
113 33 48 47 49 52
114 34 49 52 54 55
115 35 50 49 52 53
116 36 50 49 52 54
117 37 51 50 49 52
118 38 53 52 54 55
119 39 54 44 43 56
120 40 56 43 42 57
121 1 61 62 63 64
122 2 61 62 63 76
123 3 61 62 77 78
124 4 61 62 77 79
125 5 61 62 77 80
126 6 62 63 64 65
127 7 62 63 64 74
128 8 63 62 77 78
129 9 63 62 77 79
130 10 63 62 77 80
131 11 63 64 65 66
132 12 63 64 65 67
133 13 63 64 74 72
134 14 63 64 74 75
135 15 64 63 62 77
136 16 64 65 67 68
137 17 64 65 67 69
138 18 64 74 72 69
139 19 64 74 72 73
140 20 65 64 63 76
141 21 65 64 74 72
142 22 65 64 74 75
143 23 65 67 69 70
144 24 65 67 69 72
145 25 66 65 64 74
146 26 66 65 67 68
147 27 66 65 67 69
148 28 67 65 64 74
149 29 67 69 70 71
150 30 67 69 72 73
151 31 67 69 72 74
152 32 68 67 69 70
153 33 68 67 69 72
154 34 69 72 74 75
155 35 70 69 72 73
156 36 70 69 72 74
157 37 71 70 69 72
158 38 73 72 74 75
159 39 74 64 63 76
160 40 76 63 62 77
161 1 81 82 83 84
162 2 81 82 83 96
163 3 81 82 97 98
164 4 81 82 97 99
165 5 81 82 97 100
166 6 82 83 84 85
167 7 82 83 84 94
168 8 83 82 97 98
169 9 83 82 97 99
170 10 83 82 97 100
171 11 83 84 85 86
172 12 83 84 85 87
173 13 83 84 94 92
174 14 83 84 94 95
175 15 84 83 82 97
176 16 84 85 87 88
177 17 84 85 87 89
178 18 84 94 92 89
179 19 84 94 92 93
180 20 85 84 83 96
181 21 85 84 94 92
182 22 85 84 94 95
183 23 85 87 89 90
184 24 85 87 89 92
185 25 86 85 84 94
186 26 86 85 87 88
187 27 86 85 87 89
188 28 87 85 84 94
189 29 87 89 90 91
190 30 87 89 92 93
191 31 87 89 92 94
192 32 88 87 89 90
193 33 88 87 89 92
194 34 89 92 94 95
195 35 90 89 92 93
196 36 90 89 92 94
197 37 91 90 89 92
198 38 93 92 94 95
199 39 94 84 83 96
200 40 96 83 82 97
201 1 101 102 103 104
202 2 101 102 103 116
203 3 101 102 117 118
204 4 101 102 117 119
205 5 101 102 117 120
206 6 102 103 104 105
207 7 102 103 104 114
208 8 103 102 117 118
209 9 103 102 117 119
210 10 103 102 117 120
211 11 103 104 105 106
212 12 103 104 105 107
213 13 103 104 114 112
214 14 103 104 114 115
215 15 104 103 102 117
216 16 104 105 107 108
217 17 104 105 107 109
218 18 104 114 112 109
219 19 104 114 112 113
220 20 105 104 103 116
221 21 105 104 114 112
222 22 105 104 114 115
223 23 105 107 109 110
224 24 105 107 109 112
225 25 106 105 104 114
226 26 106 105 107 108
227 27 106 105 107 109
228 28 107 105 104 114
229 29 107 109 110 111
230 30 107 109 112 113
231 31 107 109 112 114
232 32 108 107 109 110
233 33 108 107 109 112
234 34 109 112 114 115
235 35 110 109 112 113
236 36 110 109 112 114
237 37 111 110 109 112
238 38 113 112 114 115
239 39 114 104 103 116
240 40 116 103 102 117
241 1 121 122 123 124
242 2 121 122 123 136
243 3 121 122 137 138
244 4 121 122 137 139
245 5 121 122 137 140
246 6 122 123 124 125
247 7 122 123 124 134
248 8 123 122 137 138
249 9 123 122 137 139
250 10 123 122 137 140
251 11 123 124 125 126
252 12 123 124 125 127
253 13 123 124 134 132
254 14 123 124 134 135
255 15 124 123 122 137
256 16 124 125 127 128
257 17 124 125 127 129
258 18 124 134 132 129
259 19 124 134 132 133
260 20 125 124 123 136
261 21 125 124 134 132
262 22 125 124 134 135
263 23 125 127 129 130
264 24 125 127 129 132
265 25 126 125 124 134
266 26 126 125 127 128
267 27 126 125 127 129
268 28 127 125 124 134
269 29 127 129 130 131
270 30 127 129 132 133
271 31 127 129 132 134
272 32 128 127 129 130
273 33 128 127 129 132
274 34 129 132 134 135
275 35 130 129 132 133
276 36 130 129 132 134
277 37 131 130 129 132
278 38 133 132 134 135
279 39 134 124 123 136
280 40 136 123 122 137
281 1 141 142 143 144
282 2 141 142 143 156
283 3 141 142 157 158
284 4 141 142 157 159
285 5 141 142 157 160
286 6 142 143 144 145
287 7 142 143 144 154
288 8 143 142 157 158
289 9 143 142 157 159
290 10 143 142 157 160
291 11 143 144 145 146
292 12 143 144 145 147
293 13 143 144 154 152
294 14 143 144 154 155
295 15 144 143 142 157
296 16 144 145 147 148
297 17 144 145 147 149
298 18 144 154 152 149
299 19 144 154 152 153
300 20 145 144 143 156
301 21 145 144 154 152
302 22 145 144 154 155
303 23 145 147 149 150
304 24 145 147 149 152
305 25 146 145 144 154
306 26 146 145 147 148
307 27 146 145 147 149
308 28 147 145 144 154
309 29 147 149 150 151
310 30 147 149 152 153
311 31 147 149 152 154
312 32 148 147 149 150
313 33 148 147 149 152
314 34 149 152 154 155
315 35 150 149 152 153
316 36 150 149 152 154
317 37 151 150 149 152
318 38 153 152 154 155
319 39 154 144 143 156
320 40 156 143 142 157

Impropers

1 1 2 1 3 17
2 2 2 3 17 1
3 3 2 17 1 3
4 4 3 2 4 16
5 5 3 4 16 2
6 6 3 16 2 4
7 7 4 3 5 14
8 8 4 5 14 3
9 9 4 14 3 5
10 10 5 4 6 7
11 11 5 6 7 4
12 12 5 7 4 6
13 13 14 4 12 15
14 14 14 12 15 4
15 15 14 15 4 12
16 16 7 5 8 9
17 17 7 8 9 5
18 18 7 9 5 8
19 19 9 7 10 12
20 20 9 10 12 7
21 21 9 12 7 10
22 22 12 9 13 14
23 23 12 13 14 9
24 24 12 14 9 13
25 1 22 21 23 37
26 2 22 23 37 21
27 3 22 37 21 23
28 4 23 22 24 36
29 5 23 24 36 22
30 6 23 36 22 24
31 7 24 23 25 34
32 8 24 25 34 23
33 9 24 34 23 25
34 10 25 24 26 27
35 11 25 26 27 24
36 12 25 27 24 26
37 13 34 24 32 35
38 14 34 32 35 24
39 15 34 35 24 32
40 16 27 25 28 29
41 17 27 28 29 25
42 18 27 29 25 28
43 19 29 27 30 32
44 20 29 30 32 27
45 21 29 32 27 30
46 22 32 29 33 34
47 23 32 33 34 29
48 24 32 34 29 33
49 1 42 41 43 57
50 2 42 43 57 41
51 3 42 57 41 43
52 4 43 42 44 56
53 5 43 44 56 42
54 6 43 56 42 44
55 7 44 43 45 54
56 8 44 45 54 43
57 9 44 54 43 45
58 10 45 44 46 47
59 11 45 46 47 44
60 12 45 47 44 46
61 13 54 44 52 55
62 14 54 52 55 44
63 15 54 55 44 52
64 16 47 45 48 49
65 17 47 48 49 45
66 18 47 49 45 48
67 19 49 47 50 52
68 20 49 50 52 47
69 21 49 52 47 50
70 22 52 49 53 54
71 23 52 53 54 49
72 24 52 54 49 53
73 1 62 61 63 77
74 2 62 63 77 61
75 3 62 77 61 63
76 4 63 62 64 76
77 5 63 64 76 62
78 6 63 76 62 64
79 7 64 63 65 74
80 8 64 65 74 63
81 9 64 74 63 65
82 10 65 64 66 67
83 11 65 66 67 64
84 12 65 67 64 66
85 13 74 64 72 75
86 14 74 72 75 64
87 15 74 75 64 72
88 16 67 65 68 69
89 17 67 68 69 65
90 18 67 69 65 68
91 19 69 67 70 72
92 20 69 70 72 67
93 21 69 72 67 70
94 22 72 69 73 74
95 23 72 73 74 69
96 24 72 74 69 73
97 1 82 81 83 97
98 2 82 83 97 81
99 3 82 97 81 83
100 4 83 82 84 96
101 5 83 84 96 82
102 6 83 96 82 84
103 7 84 83 85 94
104 8 84 85 94 83
105 9 84 94 83 85
106 10 85 84 86 87
107 11 85 86 87 84
108 12 85 87 84 86