ITEM: TIMESTEP
0
ITEM: NUMBER OF ATOMS
160
ITEM: BOX BOUNDS xy xz yz pp pp pp
-1.6046368992000009e+00 7.0842000000000009e+00 1.1234174947298332e-15
0.0000000000000000e+00 1.8346800000000002e+01 -1.6046368992000009e+00
0.0000000000000000e+00 1.1434961714900000e+01 8.0530550160635715e-16
ITEM: ATOMS id mol type element x y z ix iy iz
14 1 14 C 0.9367 5.89198 5.5439 0 0 0
15 1 15 H 0.192119 5.28571 5.66831 0 0 0
27 2 7 C 6.72613 3.01612 0.6136 0 0 0
28 2 8 H 5.96071 3.61432 0.746703 0 0 0
29 2 9 C 0.737572 3.04383 1.4774 0 0 0
30 2 10 O 0.807129 3.90502 2.53913 0 0 0
31 2 11 H 0.00275304 4.22527 2.75697 0 0 0
32 2 12 C 1.80995 2.17859 1.2575 0 0 0
33 2 13 H 2.56215 2.18235 1.88448 0 0 0
34 2 14 C 1.80308 1.30528 0.173583 0 0 0
35 2 15 H 2.54766 0.699013 0.0491703 0 0 0
41 3 1 O 5.55117 4.65853 3.52837 0 0 0
42 3 2 C 4.35668 4.73925 3.2019 0 0 0
43 3 3 N 3.36379 4.13271 3.87817 0 0 0
44 3 4 C 3.46118 3.286 5.00806 0 0 0
45 3 5 C 2.37686 2.43682 5.24796 0 0 0
46 3 6 H 1.6239 2.46214 4.63802 0 0 0
56 3 16 H 2.53762 4.22619 3.5334 0 0 0
57 3 17 C 3.91511 5.5489 2.01255 0 0 0
58 3 18 H 3.02159 5.35543 1.7404 0 0 0
59 3 19 H 4.50342 5.3747 1.27729 0 0 0
101 6 1 O 4.27281 0.0718277 2.18911 0 0 0
102 6 2 C 5.4673 0.152554 2.51558 0 0 0
117 6 17 C 5.90887 0.962198 3.70493 0 0 0
118 6 18 H -0.281809 0.768731 3.97708 0 0 0
119 6 19 H 5.32056 0.787995 4.4402 0 0 0
120 6 20 H 5.85723 1.92274 3.49338 0 0 0
7 1 7 C 3.09785 7.60282 5.10388 0 0 0
8 1 8 H 3.86327 8.20102 4.97078 0 0 0
9 1 9 C 2.00221 7.63053 4.24008 0 0 0
10 1 10 O 1.93265 8.49172 3.17835 0 0 0
11 1 11 H 2.73703 8.81197 2.96051 0 0 0
12 1 12 C 0.929834 6.76529 4.45998 0 0 0
13 1 13 H 0.17763 6.76905 3.833 0 0 0
60 3 20 H 3.96675 6.50944 2.2241 0 0 0
61 4 1 O 4.27281 9.24523 2.18911 0 0 0
62 4 2 C 5.4673 9.32595 2.51558 0 0 0
63 4 3 N 6.4602 8.71941 1.83931 0 0 0
64 4 4 C 6.3628 7.8727 0.709425 0 0 0
74 4 14 C 0.36292 7.02352 0.46952 0 0 0
75 4 15 H 1.11589 7.04884 1.07946 0 0 0
76 4 16 H 0.20216 8.81289 2.18408 0 0 0
77 4 17 C 5.90887 10.1356 3.70493 0 0 0
78 4 18 H -0.281809 9.94213 3.97708 0 0 0
79 4 19 H 5.32056 9.9614 4.4402 0 0 0
80 4 20 H 5.85723 11.0961 3.49338 0 0 0
87 5 7 C 6.72613 12.1895 0.6136 0 0 0
89 5 9 C 0.737572 12.2172 1.4774 0 0 0
92 5 12 C 1.80995 11.352 1.2575 0 0 0
93 5 13 H 2.56215 11.3558 1.88448 0 0 0
94 5 14 C 1.80308 10.4787 0.173583 0 0 0
95 5 15 H 2.54766 9.87241 0.0491703 0 0 0
145 8 5 C 2.37686 11.6102 5.24796 0 0 0
146 8 6 H 1.6239 11.6355 4.63802 0 0 0
88 5 8 H 5.96071 12.7877 0.746703 0 0 0
90 5 10 O 0.807129 13.0784 2.53913 0 0 0
91 5 11 H 0.00275304 13.3987 2.75697 0 0 0
103 6 3 N 6.4602 17.8928 1.83931 0 0 0
104 6 4 C 6.3628 17.0461 0.709425 0 0 0
105 6 5 C 0.36292 16.1969 0.46952 0 0 0
106 6 6 H 1.11589 16.2222 1.07946 0 0 0
116 6 16 H 0.20216 17.9863 2.18408 0 0 0
127 7 7 C 3.09785 16.7762 5.10388 0 0 0
128 7 8 H 3.86327 17.3744 4.97078 0 0 0
129 7 9 C 2.00221 16.8039 4.24008 0 0 0
130 7 10 O 1.93265 17.6651 3.17835 0 0 0
131 7 11 H 2.73703 17.9854 2.96051 0 0 0
132 7 12 C 0.929834 15.9387 4.45998 0 0 0
133 7 13 H 0.17763 15.9425 3.833 0 0 0
134 7 14 C 0.9367 15.0654 5.5439 0 0 0
135 7 15 H 0.192119 14.4591 5.66831 0 0 0
141 8 1 O 5.55117 13.8319 3.52837 0 0 0
142 8 2 C 4.35668 13.9127 3.2019 0 0 0
143 8 3 N 3.36379 13.3061 3.87817 0 0 0
144 8 4 C 3.46118 12.4594 5.00806 0 0 0
156 8 16 H 2.53762 13.3996 3.5334 0 0 0
157 8 17 C 3.91511 14.7223 2.01255 0 0 0
158 8 18 H 3.02159 14.5288 1.7404 0 0 0
159 8 19 H 4.50342 14.5481 1.27729 0 0 0
160 8 20 H 3.96675 15.6828 2.2241 0 0 0
1 1 1 O -0.071604 4.51487 7.90659 0 0 0
2 1 2 C 1.12289 4.43415 8.23306 0 0 0
3 1 3 N 2.11578 5.04069 7.55679 0 0 0
4 1 4 C 2.01838 5.8874 6.42691 0 0 0
16 1 16 H 2.94194 4.94721 7.90156 0 0 0
17 1 17 C 1.56445 3.6245 9.42241 0 0 0
18 1 18 H 2.45797 3.81797 9.69456 0 0 0
19 1 19 H 0.976145 3.7987 10.1577 0 0 0
20 1 20 H 1.51281 2.66396 9.21086 0 0 0
23 2 3 N -0.980632 0.453992 9.59565 0 0 0
24 2 4 C -0.883234 1.3007 10.7255 0 0 0
25 2 5 C 5.11664 2.14988 10.9654 0 0 0
26 2 6 H 4.36368 2.12456 10.3555 0 0 0
36 2 16 H 5.2774 0.360515 9.25088 0 0 0
47 3 7 C 2.38171 1.57058 6.33108 0 0 0
48 3 8 H 1.61629 0.97238 6.46418 0 0 0
49 3 9 C 3.47735 1.54287 7.19488 0 0 0
50 3 10 O 3.54691 0.681675 8.25661 0 0 0
51 3 11 H 2.74253 0.361432 8.47445 0 0 0
52 3 12 C 4.54973 2.40811 6.97498 0 0 0
53 3 13 H 5.30193 2.40435 7.60196 0 0 0
54 3 14 C 4.54286 3.28142 5.89106 0 0 0
55 3 15 H 5.28744 3.88769 5.76665 0 0 0
70 4 10 O 4.67243 5.26838 8.89583 0 0 0
71 4 11 H 5.47681 4.94813 8.67799 0 0 0
73 4 13 H -0.481146 5.55908 10.6883 0 0 0
5 1 5 C 3.1027 6.73658 6.187 0 0 0
6 1 6 H 3.85567 6.71126 6.79694 0 0 0
65 4 5 C 3.67648 7.86812 11.2614 0 0 0
66 4 6 H 2.9319 8.47439 11.3858 0 0 0
67 4 7 C 3.66962 6.99481 10.1775 0 0 0
68 4 8 H 2.91741 6.99105 9.55048 0 0 0
69 4 9 C 4.74199 6.12957 9.95756 0 0 0
72 4 12 C -1.24657 6.15728 10.8214 0 0 0
81 5 1 O 1.20675 9.10157 9.24585 0 0 0
82 5 2 C 0.0122593 9.02085 8.91938 0 0 0
83 5 3 N -0.980632 9.62739 9.59565 0 0 0
84 5 4 C -0.883234 10.4741 10.7255 0 0 0
85 5 5 C 5.11664 11.3233 10.9654 0 0 0
86 5 6 H 4.36368 11.298 10.3555 0 0 0
96 5 16 H 5.2774 9.53391 9.25088 0 0 0
97 5 17 C -0.429304 8.2112 7.73003 0 0 0
98 5 18 H 5.76137 8.40467 7.45788 0 0 0
99 5 19 H 0.159 8.3854 6.99477 0 0 0
100 5 20 H -0.377664 7.25066 7.94158 0 0 0
140 7 20 H 1.51281 11.8374 9.21086 0 0 0
147 8 7 C 2.38171 10.744 6.33108 0 0 0
148 8 8 H 1.61629 10.1458 6.46418 0 0 0
149 8 9 C 3.47735 10.7163 7.19488 0 0 0
150 8 10 O 3.54691 9.85508 8.25661 0 0 0
151 8 11 H 2.74253 9.53483 8.47445 0 0 0
152 8 12 C 4.54973 11.5815 6.97498 0 0 0
153 8 13 H 5.30193 11.5777 7.60196 0 0 0
21 2 1 O 1.20675 18.275 9.24585 0 0 0
22 2 2 C 0.0122593 18.1942 8.91938 0 0 0
37 2 17 C -0.429304 17.3846 7.73003 0 0 0
38 2 18 H 5.76137 17.5781 7.45788 0 0 0
39 2 19 H 0.159 17.5588 6.99477 0 0 0
40 2 20 H -0.377664 16.4241 7.94158 0 0 0
107 6 7 C -1.24657 15.3307 10.8214 0 0 0
108 6 8 H -0.481146 14.7325 10.6883 0 0 0
109 6 9 C 4.74199 15.303 9.95756 0 0 0
110 6 10 O 4.67243 14.4418 8.89583 0 0 0
111 6 11 H 5.47681 14.1215 8.67799 0 0 0
112 6 12 C 3.66962 16.1682 10.1775 0 0 0
113 6 13 H 2.91741 16.1644 9.55048 0 0 0
114 6 14 C 3.67648 17.0415 11.2614 0 0 0
115 6 15 H 2.9319 17.6478 11.3858 0 0 0
121 7 1 O -0.071604 13.6883 7.90659 0 0 0
122 7 2 C 1.12289 13.6075 8.23306 0 0 0
123 7 3 N 2.11578 14.2141 7.55679 0 0 0
124 7 4 C 2.01838 15.0608 6.42691 0 0 0
125 7 5 C 3.1027 15.91 6.187 0 0 0
126 7 6 H 3.85567 15.8847 6.79694 0 0 0
136 7 16 H 2.94194 14.1206 7.90156 0 0 0
137 7 17 C 1.56445 12.7979 9.42241 0 0 0
138 7 18 H 2.45797 12.9914 9.69456 0 0 0
139 7 19 H 0.976145 12.9721 10.1577 0 0 0
154 8 14 C 4.54286 12.4548 5.89106 0 0 0
155 8 15 H 5.28744 13.0611 5.76665 0 0 0
ITEM: TIMESTEP
25
ITEM: NUMBER OF ATOMS
160
ITEM: BOX BOUNDS xy xz yz pp pp pp
-1.6046368992000009e+00 7.0842000000000009e+00 1.1234174947298332e-15
0.0000000000000000e+00 1.8346800000000002e+01 -1.6046368992000009e+00
0.0000000000000000e+00 1.1434961714900000e+01 8.0530550160635715e-16
ITEM: ATOMS id mol type element x y z ix iy iz
14 1 14 C 0.827995 6.45023 5.71708 0 0 0
15 1 15 H -0.036769 5.94466 5.95336 0 0 0
27 2 7 C 6.36919 2.98389 0.69931 0 0 0
28 2 8 H 5.49093 3.44696 0.891967 0 0 0
29 2 9 C 0.486526 3.32573 1.33252 0 0 0
30 2 10 O 0.578515 4.23334 2.25869 0 0 0
31 2 11 H -0.3171 4.1594 2.73819 0 0 0
32 2 12 C 1.67716 2.75257 1.03412 0 0 0
33 2 13 H 2.5093 3.00677 1.56477 0 0 0
34 2 14 C 1.71035 1.79875 -0.0591835 0 0 0
35 2 15 H 1.0154 1.38357 11.1093 0 0 -1
41 3 1 O 5.45065 3.51822 3.02256 0 0 0
42 3 2 C 4.41754 4.15996 3.08901 0 0 0
43 3 3 N 3.40429 4.01367 3.90795 0 0 0
44 3 4 C 3.37736 3.08 4.92016 0 0 0
45 3 5 C 2.1536 2.50573 5.38973 0 0 0
46 3 6 H 1.24148 2.79194 4.98771 0 0 0
56 3 16 H 2.65572 4.58692 3.82418 0 0 0
57 3 17 C 3.90872 5.15343 2.14006 0 0 0
58 3 18 H 2.92106 4.81472 1.76908 0 0 0
59 3 19 H 4.54066 5.09976 1.26221 0 0 0
101 6 1 O 4.25931 17.3608 2.68447 0 -1 0
102 6 2 C 5.31697 17.8986 2.64873 0 -1 0
117 6 17 C 5.75898 0.417389 3.693 0 0 0
118 6 18 H -0.476924 -0.0438119 4.18951 0 0 0
119 6 19 H 4.95093 0.569084 4.44337 0 0 0
120 6 20 H 6.07588 1.43532 3.29929 0 0 0
7 1 7 C 3.17588 7.79325 5.02981 0 0 0
8 1 8 H 4.02201 8.29947 4.84693 0 0 0
9 1 9 C 1.98713 8.06384 4.33435 0 0 0
10 1 10 O 1.92412 8.91409 3.34255 0 0 0
11 1 11 H 2.86244 8.88842 2.95655 0 0 0
12 1 12 C 0.828389 7.44963 4.66674 0 0 0
13 1 13 H -0.0303283 7.55731 4.15437 0 0 0
60 3 20 H 3.79325 6.17849 2.58419 0 0 0
61 4 1 O 4.19467 8.19486 2.67393 0 0 0
62 4 2 C 5.30333 8.70378 2.63893 0 0 0
63 4 3 N 6.3088 8.41785 1.85791 0 0 0
64 4 4 C 6.34237 7.51271 0.844819 0 0 0
74 4 14 C 0.510077 7.0938 0.318991 0 0 0
75 4 15 H 1.40026 7.41404 0.711262 0 0 0
76 4 16 H 0.0342021 8.89437 1.94854 0 0 0
77 4 17 C 5.80907 9.6567 3.5499 0 0 0
78 4 18 H -0.410802 9.27182 4.0489 0 0 0
79 4 19 H 5.01007 9.92019 4.30854 0 0 0
80 4 20 H 6.11705 10.6381 3.02991 0 0 0
87 5 7 C 6.54996 12.0998 0.773271 0 0 0
89 5 9 C 0.65992 12.4837 1.41343 0 0 0
92 5 12 C 1.86586 12.0135 0.946799 0 0 0
93 5 13 H 2.73174 12.2395 1.40509 0 0 0
94 5 14 C 0.299032 11.1771 11.2433 0 0 -1
95 5 15 H 1.21495 10.839 10.914 0 0 -1
145 8 5 C 2.22133 11.4947 5.183 0 0 0
146 8 6 H 1.37932 11.7085 4.63573 0 0 0
88 5 8 H 5.64992 12.5146 1.00635 0 0 0
90 5 10 O 0.656455 13.356 2.37107 0 0 0
91 5 11 H -0.289947 13.2745 2.7407 0 0 0
103 6 3 N 6.3441 17.7751 1.81974 0 0 0
104 6 4 C 6.37793 16.8388 0.827129 0 0 0
105 6 5 C 0.440639 16.1083 0.503071 0 0 0
106 6 6 H 1.32426 16.3509 0.983722 0 0 0
116 6 16 H 0.0874444 18.0739 2.15022 0 0 0
127 7 7 C 3.29719 16.7086 4.9699 0 0 0
128 7 8 H 4.19801 17.1371 4.79756 0 0 0
129 7 9 C 2.1068 17.0094 4.27428 0 0 0
130 7 10 O 2.04163 17.9268 3.33823 0 0 0
131 7 11 H 2.94586 17.7751 2.8765 0 0 0
132 7 12 C 0.935291 16.4351 4.6574 0 0 0
133 7 13 H 0.0901497 16.6173 4.1383 0 0 0
134 7 14 C 0.926357 15.4985 5.75568 0 0 0
135 7 15 H 0.0498443 15.0268 6.03025 0 0 0
141 8 1 O 5.47551 12.7038 3.02987 0 0 0
142 8 2 C 4.50412 13.4005 3.17154 0 0 0
143 8 3 N 3.46312 13.1538 3.95709 0 0 0
144 8 4 C 3.39966 12.2035 4.92788 0 0 0
156 8 16 H 2.71205 13.7067 3.85248 0 0 0
157 8 17 C 3.97929 14.3457 2.1538 0 0 0
158 8 18 H 3.08364 13.943 1.74637 0 0 0
159 8 19 H 4.71616 14.4453 1.31742 0 0 0
160 8 20 H 3.68382 15.3474 2.55611 0 0 0
1 1 1 O -0.0123037 5.66728 8.29102 0 0 0
2 1 2 C 0.965017 4.96076 8.2595 0 0 0
3 1 3 N 1.95804 5.12646 7.44191 0 0 0
4 1 4 C 2.02511 6.0792 6.41512 0 0 0
16 1 16 H 2.77664 4.73012 7.65603 0 0 0
17 1 17 C 1.47322 4.16878 9.33193 0 0 0
18 1 18 H 2.50503 4.36643 9.55089 0 0 0
19 1 19 H 0.826673 4.28335 10.2207 0 0 0
20 1 20 H 1.62794 3.08925 9.07698 0 0 0
23 2 3 N -0.955187 0.643724 9.53232 0 0 0
24 2 4 C -1.07443 1.51151 10.6085 0 0 0
25 2 5 C 4.78622 2.0972 10.9905 0 0 0
26 2 6 H 3.95761 1.92209 10.4247 0 0 0
36 2 16 H 5.35091 0.159721 9.324 0 0 0
47 3 7 C 2.18526 1.60185 6.48086 0 0 0
48 3 8 H 1.25149 1.23484 6.64215 0 0 0
49 3 9 C 3.41986 1.19231 7.05818 0 0 0
50 3 10 O 3.46824 0.306775 7.9926 0 0 0
51 3 11 H 2.55258 0.462007 8.4227 0 0 0
52 3 12 C 4.60153 1.71995 6.62456 0 0 0
53 3 13 H 5.4649 1.61467 7.14233 0 0 0
54 3 14 C 4.6013 2.67713 5.56279 0 0 0
55 3 15 H 5.45964 3.14548 5.2487 0 0 0
70 4 10 O 4.78218 5.08024 8.90695 0 0 0
71 4 11 H 5.69221 5.30424 8.47593 0 0 0
73 4 13 H -0.116198 6.08264 10.3177 0 0 0
5 1 5 C 3.19605 6.82992 6.1222 0 0 0
6 1 6 H 4.06401 6.65993 6.68228 0 0 0
65 4 5 C 5.12192 6.99449 0.255416 0 0 1
66 4 6 H 4.20317 7.27839 0.639761 0 0 1
67 4 7 C 3.56755 6.15904 10.5467 0 0 0
68 4 8 H 2.66337 6.14043 10.1026 0 0 0
69 4 9 C 4.78753 5.85205 9.97764 0 0 0
72 4 12 C -1.06651 6.33912 10.5742 0 0 0
81 5 1 O 1.22627 10.1007 8.79397 0 0 0
82 5 2 C 0.189545 9.53231 8.85018 0 0 0
83 5 3 N -0.858912 9.91234 9.52238 0 0 0
84 5 4 C -0.883858 10.8001 10.5356 0 0 0
85 5 5 C 4.97299 11.3547 10.9845 0 0 0
86 5 6 H 4.11392 11.1019 10.4855 0 0 0
96 5 16 H 5.39268 9.47794 9.38028 0 0 0
97 5 17 C -0.435954 8.72405 7.82595 0 0 0
98 5 18 H 5.59294 8.92056 7.7654 0 0 0
99 5 19 H -0.0506121 9.01514 6.87077 0 0 0
100 5 20 H -0.279255 7.66693 7.96989 0 0 0
140 7 20 H 1.92911 12.5953 9.14245 0 0 0
147 8 7 C 2.18124 10.5751 6.2899 0 0 0
148 8 8 H 1.30077 10.0981 6.50675 0 0 0
149 8 9 C 3.3574 10.2741 7.04519 0 0 0
150 8 10 O 3.39491 9.40443 8.03227 0 0 0
151 8 11 H 2.48107 9.51443 8.44842 0 0 0
152 8 12 C 4.50882 10.9315 6.77869 0 0 0
153 8 13 H 5.34868 10.6881 7.2999 0 0 0
21 2 1 O 1.14362 1.03955 8.73142 0 1 0
22 2 2 C 0.0212999 0.588423 8.67107 0 1 0
37 2 17 C -0.484528 17.9397 7.73692 0 0 0
38 2 18 H 5.69489 18.1877 7.25859 0 0 0
39 2 19 H 0.231095 17.7029 6.92908 0 0 0
40 2 20 H -0.805796 16.9881 8.27101 0 0 0
107 6 7 C -1.1946 15.2623 10.8186 0 0 0
108 6 8 H -0.356765 14.8147 10.5924 0 0 0
109 6 9 C 4.7254 15.0335 10.0825 0 0 0
110 6 10 O 4.7434 14.243 9.02093 0 0 0
111 6 11 H 5.68885 14.4188 8.65509 0 0 0
112 6 12 C 3.57714 15.6878 10.4485 0 0 0
113 6 13 H 2.72623 15.8035 9.87886 0 0 0
114 6 14 C 3.57582 16.5746 11.5456 0 0 0
115 6 15 H 4.31985 17.0978 0.33894 0 0 1
121 7 1 O -0.0177116 14.8405 8.4582 0 0 0
122 7 2 C 1.04438 14.2307 8.3883 0 0 0
123 7 3 N 2.03498 14.3342 7.53644 0 0 0
124 7 4 C 2.10195 15.2102 6.49984 0 0 0
125 7 5 C 3.28609 15.8716 6.13166 0 0 0
126 7 6 H 4.13984 15.7684 6.6689 0 0 0
136 7 16 H 2.83233 13.9367 7.75964 0 0 0
137 7 17 C 1.58553 13.6017 9.45919 0 0 0
138 7 18 H 2.45719 13.9325 9.81425 0 0 0
139 7 19 H 0.861135 13.4555 10.2276 0 0 0
154 8 14 C 4.55175 11.9119 5.72559 0 0 0
155 8 15 H 5.4043 12.4218 5.51489 0 0 0
ITEM: TIMESTEP
50
ITEM: NUMBER OF ATOMS
160
ITEM: BOX BOUNDS xy xz yz pp pp pp
-1.6046368992000009e+00 7.0842000000000009e+00 1.1234174947298332e-15
0.0000000000000000e+00 1.8346800000000002e+01 -1.6046368992000009e+00
0.0000000000000000e+00 1.1434961714900000e+01 8.0530550160635715e-16
ITEM: ATOMS id mol type element x y z ix iy iz
14 1 14 C 0.779342 7.26563 6.07728 0 0 0
15 1 15 H -0.182374 7.03182 6.49011 0 0 0
27 2 7 C 6.4283 3.2609 0.487774 0 0 0
28 2 8 H 5.39422 3.19274 0.626789 0 0 0
29 2 9 C 0.431561 3.84187 1.02658 0 0 0
30 2 10 O 0.249389 4.44359 2.13983 0 0 0
31 2 11 H 6.53735 4.05963 2.48212 -1 0 0
32 2 12 C 1.68531 3.6179 0.511932 0 0 0
33 2 13 H 2.58119 4.21096 0.737671 0 0 0
34 2 14 C 0.20117 2.73989 10.9133 0 0 -1
35 2 15 H 1.17453 2.61285 10.4779 0 0 -1
41 3 1 O 4.87212 1.85025 2.41711 0 0 0
42 3 2 C 3.96328 2.66122 2.43304 0 0 0
43 3 3 N 3.25298 2.80707 3.49685 0 0 0
44 3 4 C 3.41456 2.34252 4.73224 0 0 0
45 3 5 C 2.18639 2.06911 5.26581 0 0 0
46 3 6 H 1.28866 2.32797 4.72351 0 0 0
56 3 16 H 2.89269 3.73866 3.47772 0 0 0
57 3 17 C 4.18225 4.1847 2.32634 0 0 0
58 3 18 H 3.29436 4.85579 2.40055 0 0 0
59 3 19 H 4.48843 4.36088 1.40435 0 0 0
101 6 1 O 4.63425 15.8833 3.19775 0 -1 0
102 6 2 C 5.59377 16.5806 3.33158 0 -1 0
117 6 17 C 5.49093 18.0486 3.74811 0 -1 0
118 6 18 H 5.751 18.1632 4.79038 -1 -1 0
119 6 19 H 4.48234 0.123576 3.61136 0 0 0
120 6 20 H 6.22946 0.364714 3.265 0 0 0
7 1 7 C 3.17902 7.97959 5.09027 0 0 0
8 1 8 H 4.02815 8.52754 5.07842 0 0 0
9 1 9 C 2.04792 8.39808 4.50071 0 0 0
10 1 10 O 2.15867 9.05864 3.39936 0 0 0
11 1 11 H 2.99442 8.77928 3.04996 0 0 0
12 1 12 C 0.851046 8.11437 5.04082 0 0 0
13 1 13 H 0.0363582 8.62469 4.70569 0 0 0
60 3 20 H 4.88171 4.51994 3.06669 0 0 0
61 4 1 O 4.53069 6.61359 3.3018 0 0 0
62 4 2 C 5.49421 7.34054 3.33919 0 0 0
63 4 3 N 6.4432 7.07941 2.43537 0 0 0
64 4 4 C 6.32659 6.54932 1.16432 0 0 0
74 4 14 C 0.441232 6.54973 0.498837 0 0 0
75 4 15 H 1.31796 6.97416 0.947148 0 0 0
76 4 16 H 0.000438082 7.84323 2.43594 0 0 0
77 4 17 C 5.34698 8.89806 3.50811 0 0 0
78 4 18 H 5.50593 9.21451 4.52081 -1 0 0
79 4 19 H 4.40415 9.29624 3.09177 0 0 0
80 4 20 H 6.22563 9.44417 3.11607 0 0 0
87 5 7 C 6.50968 12.5695 0.571019 0 0 0
89 5 9 C 0.573965 12.962 1.19403 0 0 0
92 5 12 C 1.81947 12.7777 0.643295 0 0 0
93 5 13 H 2.68242 13.0853 1.1 0 0 0
94 5 14 C 0.308193 12.2242 10.8532 0 0 -1
95 5 15 H 1.27691 12.0554 10.4128 0 0 -1
145 8 5 C 2.22549 10.9157 5.11849 0 0 0
146 8 6 H 1.32517 10.9447 4.52692 0 0 0
88 5 8 H 5.48104 12.8227 0.625484 0 0 0
90 5 10 O 0.464035 13.3263 2.40667 0 0 0
91 5 11 H -0.271382 12.8141 2.72966 0 0 0
103 6 3 N 6.46636 16.5653 2.35611 0 0 0
104 6 4 C 6.38665 15.9455 1.15408 0 0 0
105 6 5 C 0.479429 15.4901 0.652258 0 0 0
106 6 6 H 1.37139 15.4037 1.25718 0 0 0
116 6 16 H -0.0670286 17.3948 2.37256 0 0 0
127 7 7 C 3.2429 17.0443 5.17636 0 0 0
128 7 8 H 4.18356 17.2999 5.12701 0 0 0
129 7 9 C 2.14635 17.5179 4.60723 0 0 0
130 7 10 O 2.34517 17.9512 3.44928 0 0 0
131 7 11 H 3.09056 17.4345 3.15447 0 0 0
132 7 12 C 0.930217 17.25 5.08889 0 0 0
133 7 13 H 0.272923 17.4561 4.35019 0 0 0
134 7 14 C 0.78549 16.3955 6.11785 0 0 0
135 7 15 H -0.18964 16.2275 6.53258 0 0 0
141 8 1 O 5.04476 11.2111 2.52224 0 0 0
142 8 2 C 4.13898 12.0064 2.42998 0 0 0
143 8 3 N 3.31151 12.0075 3.47399 0 0 0
144 8 4 C 3.40446 11.3243 4.63404 0 0 0
156 8 16 H 2.83049 12.8795 3.54908 0 0 0
157 8 17 C 4.43549 13.5566 2.25547 0 0 0
158 8 18 H 3.97314 14.1321 1.44869 0 0 0
159 8 19 H 5.49224 13.8702 2.23508 0 0 0
160 8 20 H 4.11458 13.9646 3.18453 0 0 0
1 1 1 O 0.362437 7.2156 8.75497 0 0 0
2 1 2 C 1.22344 6.3505 8.87232 0 0 0
3 1 3 N 2.04506 6.25429 7.849 0 0 0
4 1 4 C 2.00539 6.8997 6.67663 0 0 0
16 1 16 H 2.66264 5.47481 7.9057 0 0 0
17 1 17 C 1.04046 4.86765 9.3543 0 0 0
18 1 18 H 1.8187 4.26725 8.88447 0 0 0
19 1 19 H 1.23569 4.75535 10.4161 0 0 0
20 1 20 H 0.0632271 4.50017 9.05601 0 0 0
23 2 3 N -1.1343 1.88819 9.00176 0 0 0
24 2 4 C -1.00532 2.3113 10.2885 0 0 0
25 2 5 C 4.87867 2.5388 10.8339 0 0 0
26 2 6 H 3.99028 2.2547 10.3099 0 0 0
36 2 16 H 5.37954 1.07227 8.91674 0 0 0
47 3 7 C 2.1389 1.1817 6.21874 0 0 0
48 3 8 H 1.13992 0.818057 6.1482 0 0 0
49 3 9 C 3.30192 0.740617 6.77999 0 0 0
50 3 10 O 3.20979 0.166112 7.90402 0 0 0
51 3 11 H 2.39548 0.49137 8.26524 0 0 0
52 3 12 C 4.52493 0.997058 6.23103 0 0 0
53 3 13 H 5.46552 0.561569 6.42288 0 0 0
54 3 14 C 4.62481 1.83549 5.20542 0 0 0
55 3 15 H 5.57071 1.98158 4.71559 0 0 0
70 4 10 O 4.93904 5.27853 9.02484 0 0 0
71 4 11 H 5.6364 5.88141 8.79091 0 0 0
73 4 13 H -0.0805459 6.11246 10.585 0 0 0
5 1 5 C 3.21814 7.34654 6.23474 0 0 0
6 1 6 H 4.11747 7.29925 6.84111 0 0 0
65 4 5 C 5.14429 6.09624 0.549236 0 0 1
66 4 6 H 4.1544 6.24249 0.954238 0 0 1
67 4 7 C 3.69183 5.40058 10.8268 0 0 0
68 4 8 H 3.01759 4.79335 10.2879 0 0 0
69 4 9 C 4.92977 5.30325 10.2679 0 0 0
72 4 12 C -1.0553 5.83825 10.8279 0 0 0
81 5 1 O 0.838217 11.8934 8.0783 0 0 0
82 5 2 C -0.0689518 11.0743 8.0613 0 0 0
83 5 3 N -0.959161 11.1685 9.06725 0 0 0
84 5 4 C -0.888987 11.7929 10.2615 0 0 0
85 5 5 C 4.96659 11.935 10.8518 0 0 0
86 5 6 H 4.09017 11.7145 10.2699 0 0 0
96 5 16 H 5.58152 10.3315 9.13166 0 0 0
97 5 17 C -0.0154509 9.48506 7.66037 0 0 0
98 5 18 H -0.799685 8.96361 8.21242 1 0 0
99 5 19 H -0.329351 9.228 6.64409 0 0 0
100 5 20 H 0.946341 9.10661 7.95336 0 0 0
140 7 20 H 0.307102 13.8725 9.09902 0 0 0
147 8 7 C 2.26181 10.3426 6.28809 0 0 0
148 8 8 H 1.4102 9.84622 6.24675 0 0 0
149 8 9 C 3.38371 9.90583 6.88233 0 0 0
150 8 10 O 3.22424 9.28035 8.00038 0 0 0
151 8 11 H 2.38563 9.59954 8.31514 0 0 0
152 8 12 C 4.57098 10.2763 6.40533 0 0 0
153 8 13 H 5.2656 10.3496 7.13838 0 0 0
21 2 1 O 0.697536 2.62347 8.1759 0 1 0
22 2 2 C -0.206609 1.82657 8.05796 0 1 0
37 2 17 C 0.0128708 0.25887 7.90085 0 1 0
38 2 18 H 6.27438 17.9323 7.62418 0 0 0
39 2 19 H 0.986739 18.1872 7.61905 0 0 0
40 2 20 H 0.044308 18.4036 8.96155 0 0 0
107 6 7 C -1.20881 14.9403 10.8724 0 0 0
108 6 8 H -0.41878 14.4884 10.6335 0 0 0
109 6 9 C 4.7371 14.5109 10.3465 0 0 0
110 6 10 O 4.90325 14.2188 9.14189 0 0 0
111 6 11 H 5.69847 14.6874 8.91557 0 0 0
112 6 12 C 3.56978 14.9399 10.8247 0 0 0
113 6 13 H 3.05513 15.3344 10.0142 0 0 0
114 6 14 C 5.16333 15.7601 0.467188 0 0 1
115 6 15 H 4.22833 16.1383 0.830178 0 0 1
121 7 1 O 0.394726 16.409 8.8598 0 0 0
122 7 2 C 1.33212 15.6745 8.9687 0 0 0
123 7 3 N 2.14911 15.548 7.97248 0 0 0
124 7 4 C 2.01075 15.9897 6.72656 0 0 0
125 7 5 C 3.22253 16.2634 6.21857 0 0 0
126 7 6 H 4.10699 16.124 6.80549 0 0 0
136 7 16 H 2.69748 14.7296 8.07863 0 0 0
137 7 17 C 1.23932 14.2409 9.5048 0 0 0
138 7 18 H 1.98273 13.6055 9.04734 0 0 0
139 7 19 H 1.4347 14.1378 10.5981 0 0 0
154 8 14 C 4.62497 11.0314 5.27674 0 0 0
155 8 15 H 5.5707 11.3385 4.8939 0 0 0
ITEM: TIMESTEP
75
ITEM: NUMBER OF ATOMS
160
ITEM: BOX BOUNDS xy xz yz pp pp pp
-1.6046368992000009e+00 7.0842000000000009e+00 1.1234174947298332e-15
0.0000000000000000e+00 1.8346800000000002e+01 -1.6046368992000009e+00
0.0000000000000000e+00 1.1434961714900000e+01 8.0530550160635715e-16
ITEM: ATOMS id mol type element x y z ix iy iz
14 1 14 C 0.844622 7.40002 6.1609 0 0 0
15 1 15 H -0.0408547 7.3349 6.77707 0 0 0
27 2 7 C 6.48995 3.06619 0.649631 0 0 0
28 2 8 H 5.54689 3.2382 1.00373 0 0 0
29 2 9 C 0.568829 3.45021 1.31749 0 0 0
30 2 10 O 0.506645 3.86683 2.62431 0 0 0
31 2 11 H 0.295853 4.81071 2.62846 0 0 0
32 2 12 C 1.73927 3.44831 0.554797 0 0 0
33 2 13 H 2.6429 3.85358 0.940657 0 0 0
34 2 14 C 0.11044 3.00411 10.6709 0 0 -1
35 2 15 H 1.02241 2.93099 10.091 0 0 -1
41 3 1 O 4.63315 1.6712 1.96575 0 0 0
42 3 2 C 3.8216 2.49557 2.28975 0 0 0
43 3 3 N 2.95286 2.2635 3.23973 0 0 0
44 3 4 C 3.17475 2.04943 4.59042 0 0 0
45 3 5 C 2.04149 1.82616 5.35922 0 0 0
46 3 6 H 1.04757 1.97868 4.94877 0 0 0
56 3 16 H 2.20621 2.93513 3.16656 0 0 0
57 3 17 C 4.21822 3.85472 2.64324 0 0 0
58 3 18 H 3.4246 4.39776 3.17479 0 0 0
59 3 19 H 4.34462 4.42701 1.76465 0 0 0
101 6 1 O 4.70984 15.7299 3.36886 0 -1 0
102 6 2 C 5.72157 16.383 3.43466 0 -1 0
117 6 17 C 5.61878 17.8183 2.97611 0 -1 0
118 6 18 H 5.5825 18.5077 3.80475 -1 -1 0
119 6 19 H 4.69833 17.8882 2.40098 0 -1 0
120 6 20 H 6.41638 -0.243092 2.29061 0 0 0
7 1 7 C 3.17133 7.98188 4.85101 0 0 0
8 1 8 H 4.05021 8.44171 4.47692 0 0 0
9 1 9 C 1.98242 8.24954 4.22493 0 0 0
10 1 10 O 2.01806 8.85377 3.03062 0 0 0
11 1 11 H 2.58545 9.6333 3.11981 0 0 0
12 1 12 C 0.798679 8.00703 4.91742 0 0 0
13 1 13 H -0.149477 8.32606 4.57054 0 0 0
60 3 20 H 5.14121 3.83525 3.21643 0 0 0
61 4 1 O 4.54646 6.41314 3.42363 0 0 0
62 4 2 C 5.54432 7.0738 3.42742 0 0 0
63 4 3 N 6.46248 6.54415 2.66724 0 0 0
64 4 4 C 6.33032 6.57529 1.27445 0 0 0
74 4 14 C 0.380918 6.74553 0.557701 0 0 0
75 4 15 H 1.31352 6.95823 1.05881 0 0 0
76 4 16 H 0.161117 7.15715 2.81744 0 0 0
77 4 17 C 5.50531 8.45468 2.75035 0 0 0
78 4 18 H 5.37502 9.26655 3.44673 -1 0 0
79 4 19 H 4.72315 8.48412 1.99101 0 0 0
80 4 20 H 6.45281 8.72913 2.28786 0 0 0
87 5 7 C 6.52798 12.4977 0.637916 0 0 0
89 5 9 C 0.613021 12.6766 1.33838 0 0 0
92 5 12 C 1.82945 12.39 0.71973 0 0 0
93 5 13 H 2.72749 12.7276 1.16159 0 0 0
94 5 14 C 0.240436 11.9572 10.838 0 0 -1
95 5 15 H 1.16489 11.8714 10.2793 0 0 -1
145 8 5 C 2.09887 11.1166 5.20119 0 0 0
146 8 6 H 1.14989 11.2465 4.69309 0 0 0
88 5 8 H 5.61288 12.869 1.02391 0 0 0
90 5 10 O 0.515147 13.1673 2.58552 0 0 0
91 5 11 H -0.245504 13.7638 2.61611 0 0 0
103 6 3 N 6.71808 15.9582 2.68831 0 0 0
104 6 4 C 6.57901 15.7536 1.34156 0 0 0
105 6 5 C 0.642327 15.5962 0.594207 0 0 0
106 6 6 H 1.60653 15.6222 1.09085 0 0 0
116 6 16 H 0.41323 16.585 2.78931 0 0 0
127 7 7 C 3.32115 16.9763 5.05865 0 0 0
128 7 8 H 4.28925 17.3635 4.82565 0 0 0
129 7 9 C 2.21021 17.3316 4.32639 0 0 0
130 7 10 O 2.33533 17.9464 3.13257 0 0 0
131 7 11 H 3.05024 0.248841 3.19097 0 1 0
132 7 12 C 0.985376 17.252 4.95139 0 0 0
133 7 13 H 0.20121 17.7879 4.49202 0 0 0
134 7 14 C 0.890472 16.7616 6.25406 0 0 0
135 7 15 H -0.000677125 16.8965 6.85525 0 0 0
141 8 1 O 5.07482 11.0235 2.19962 0 0 0
142 8 2 C 4.13515 11.7445 2.4123 0 0 0
143 8 3 N 3.18806 11.3233 3.20062 0 0 0
144 8 4 C 3.28926 11.27 4.54881 0 0 0
156 8 16 H 2.40171 11.9405 3.08368 0 0 0
157 8 17 C 4.25504 13.1553 2.9538 0 0 0
158 8 18 H 4.32378 13.8789 2.14527 0 0 0
159 8 19 H 5.14005 13.231 3.59639 0 0 0
160 8 20 H 3.38698 13.4773 3.53464 0 0 0
1 1 1 O 0.459585 7.41884 9.12952 0 0 0
2 1 2 C 1.40758 6.69191 8.98754 0 0 0
3 1 3 N 2.27139 6.83643 8.01826 0 0 0
4 1 4 C 2.08469 7.01538 6.6861 0 0 0
16 1 16 H 2.94022 6.09519 8.12221 0 0 0
17 1 17 C 1.20138 5.23174 8.84533 0 0 0
18 1 18 H 1.98457 4.69147 8.30528 0 0 0
19 1 19 H 1.1902 4.83302 9.83955 0 0 0
20 1 20 H 0.283654 5.00476 8.3274 0 0 0
23 2 3 N -1.23005 2.52816 8.7023 0 0 0
24 2 4 C -1.13294 2.71877 10.0517 0 0 0
25 2 5 C 4.82011 2.60789 10.7974 0 0 0
26 2 6 H 3.86439 2.37996 10.3441 0 0 0
36 2 16 H 5.07278 1.90566 8.58861 0 0 0
47 3 7 C 2.19311 1.11208 6.52165 0 0 0
48 3 8 H 1.30827 0.730212 6.94471 0 0 0
49 3 9 C 3.39768 0.888099 7.11249 0 0 0
50 3 10 O 3.40512 18.6446 8.3224 0 -1 0
51 3 11 H 2.86952 17.8408 8.26545 0 -1 0
52 3 12 C 4.55919 1.26027 6.42002 0 0 0
53 3 13 H 5.50177 0.88429 6.75616 0 0 0
54 3 14 C 4.45956 1.8119 5.12552 0 0 0
55 3 15 H 5.32828 2.02733 4.51504 0 0 0
70 4 10 O 4.92589 5.1099 8.8723 0 0 0
71 4 11 H 5.86496 5.00264 8.68157 0 0 0
73 4 13 H -0.213444 5.93786 10.445 0 0 0
5 1 5 C 3.24437 7.18313 5.96919 0 0 0
6 1 6 H 4.2038 6.98135 6.43736 0 0 0
65 4 5 C 5.13811 6.24192 0.594432 0 0 1
66 4 6 H 4.19273 6.18509 1.11534 0 0 1
67 4 7 C 3.61248 5.69981 10.7612 0 0 0
68 4 8 H 2.88472 4.99904 10.4598 0 0 0
69 4 9 C 4.80031 5.73141 10.0713 0 0 0
72 4 12 C -1.18014 6.21528 10.7355 0 0 0
81 5 1 O 0.845945 11.9604 7.72241 0 0 0
82 5 2 C -0.101003 11.2886 8.03414 0 0 0
83 5 3 N -1.02781 11.8253 8.78374 0 0 0
84 5 4 C -0.989451 11.7759 10.1682 0 0 0
85 5 5 C 4.8858 11.8665 10.8459 0 0 0
86 5 6 H 3.9373 11.79 10.3268 0 0 0
96 5 16 H 5.23636 11.2803 8.57631 0 0 0
97 5 17 C 0.0406839 9.92078 8.67301 0 0 0
98 5 18 H -0.62608 9.72553 9.51356 1 0 0
99 5 19 H -0.209204 9.13149 7.97619 0 0 0
100 5 20 H 1.03449 9.79384 9.07799 0 0 0
140 7 20 H 0.420239 13.7594 8.70207 0 0 0
147 8 7 C 2.14919 10.3346 6.33657 0 0 0
148 8 8 H 1.26394 9.87353 6.69689 0 0 0
149 8 9 C 3.32848 10.1369 7.04507 0 0 0
150 8 10 O 3.29136 9.46622 8.21736 0 0 0
151 8 11 H 2.81708 8.63698 8.07161 0 0 0
152 8 12 C 4.5392 10.5225 6.47494 0 0 0
153 8 13 H 5.46009 10.1046 6.84625 0 0 0
21 2 1 O 0.6243 2.77275 7.74432 0 1 0
22 2 2 C -0.23459 2.00075 8.08358 0 1 0
37 2 17 C -0.0451655 0.699949 8.87688 0 1 0
38 2 18 H -0.830937 18.3347 8.63066 1 0 0
39 2 19 H 0.94449 0.265341 8.73952 0 1 0
40 2 20 H -0.0759606 0.743384 9.9692 0 1 0
107 6 7 C -1.1337 14.9705 10.7999 0 0 0
108 6 8 H -0.330847 14.5539 10.2821 0 0 0
109 6 9 C 4.75393 14.9464 10.1524 0 0 0
110 6 10 O 4.65679 14.411 8.89299 0 0 0
111 6 11 H 5.2894 13.6865 8.79795 0 0 0
112 6 12 C 3.64935 15.4391 10.815 0 0 0
113 6 13 H 2.65013 15.3664 10.5101 0 0 0
114 6 14 C 5.31928 15.6721 0.718597 0 0 1
115 6 15 H 4.38139 15.8606 1.2206 0 0 1
121 7 1 O 0.252342 16.3643 9.22962 0 0 0
122 7 2 C 1.20737 15.6725 8.98127 0 0 0
123 7 3 N 2.14721 16.1173 8.22497 0 0 0
124 7 4 C 2.03839 16.2067 6.85575 0 0 0
125 7 5 C 3.24663 16.2305 6.20045 0 0 0
126 7 6 H 4.163 15.939 6.69518 0 0 0
136 7 16 H 2.88883 15.4561 8.36966 0 0 0
137 7 17 C 1.39061 14.1867 8.90714 0 0 0
138 7 18 H 2.02863 13.8972 8.0674 0 0 0
139 7 19 H 1.83586 13.7479 9.8125 0 0 0
154 8 14 C 4.52185 11.0269 5.19314 0 0 0
155 8 15 H 5.44991 11.1039 4.64938 0 0 0
ITEM: TIMESTEP
100
ITEM: NUMBER OF ATOMS
160
ITEM: BOX BOUNDS xy xz yz pp pp pp
-1.6046368992000009e+00 7.0842000000000009e+00 1.1234174947298332e-15
0.0000000000000000e+00 1.8346800000000002e+01 -1.6046368992000009e+00
0.0000000000000000e+00 1.1434961714900000e+01 8.0530550160635715e-16
ITEM: ATOMS id mol type element x y z ix iy iz
14 1 14 C 0.995353 6.9806 6.09312 0 0 0
15 1 15 H 0.124477 6.96129 6.73077 0 0 0
27 2 7 C 6.47034 2.79881 0.903362 0 0 0
28 2 8 H 5.5683 2.94202 1.38253 0 0 0
29 2 9 C 0.62966 3.01646 1.49859 0 0 0
30 2 10 O 0.724148 3.5242 2.76557 0 0 0
31 2 11 H -0.143378 3.52312 3.1648 0 0 0
32 2 12 C 1.73523 3.05363 0.669264 0 0 0
33 2 13 H 2.68671 3.4257 0.958149 0 0 0
34 2 14 C -0.012389 2.87666 10.7626 0 0 -1
35 2 15 H 0.90189 2.8848 10.1877 0 0 -1
41 3 1 O 4.15613 1.60797 2.11046 0 0 0
42 3 2 C 3.61797 2.55385 2.60205 0 0 0
43 3 3 N 2.68519 2.30224 3.45568 0 0 0
44 3 4 C 2.93769 2.18771 4.75818 0 0 0
45 3 5 C 1.90815 1.88224 5.57596 0 0 0
46 3 6 H 0.902993 1.82497 5.17305 0 0 0
56 3 16 H 1.95766 3.00012 3.31751 0 0 0
57 3 17 C 4.26576 3.84963 2.91141 0 0 0
58 3 18 H 3.77657 4.32496 3.76749 0 0 0
59 3 19 H 4.15611 4.50691 2.05816 0 0 0
101 6 1 O 5.04025 15.5756 3.36918 0 -1 0
102 6 2 C 5.89902 16.3933 3.2815 0 -1 0
117 6 17 C 5.59223 17.842 3.08464 0 -1 0
118 6 18 H 5.72176 0.0391069 4.01476 -1 0 0
119 6 19 H 4.54974 17.8814 2.79514 0 -1 0
120 6 20 H 6.20375 18.2887 2.31059 0 -1 0
7 1 7 C 3.08829 7.80779 4.64892 0 0 0
8 1 8 H 3.80671 8.50623 4.32404 0 0 0
9 1 9 C 1.82981 7.85067 4.09823 0 0 0
10 1 10 O 1.61439 8.56893 2.98488 0 0 0
11 1 11 H 2.4613 8.86182 2.6503 0 0 0
12 1 12 C 0.768796 7.44637 4.84114 0 0 0
13 1 13 H -0.202444 7.85006 4.6549 0 0 0
60 3 20 H 5.3189 3.74763 3.13855 0 0 0
61 4 1 O 4.67452 6.35212 3.35605 0 0 0
62 4 2 C 5.56946 7.12034 3.18728 0 0 0
63 4 3 N 6.61355 6.73311 2.53803 0 0 0
64 4 4 C 6.56083 6.60502 1.19288 0 0 0
74 4 14 C 0.631114 6.71241 0.448442 0 0 0
75 4 15 H 1.60523 6.80934 0.913221 0 0 0
76 4 16 H 0.227682 7.4415 2.71988 0 0 0
77 4 17 C 5.30827 8.45472 2.69377 0 0 0
78 4 18 H 5.58766 9.13309 3.4899 -1 0 0
79 4 19 H 4.26007 8.5485 2.45307 0 0 0
80 4 20 H 5.87575 8.74772 1.81534 0 0 0
87 5 7 C 6.43895 12.2601 0.811874 0 0 0
89 5 9 C 0.555519 12.2024 1.53738 0 0 0
92 5 12 C 1.68986 11.9459 0.812717 0 0 0
93 5 13 H 2.64389 12.2807 1.13833 0 0 0
94 5 14 C 0.0310878 11.7559 10.9021 0 0 -1
95 5 15 H 0.958027 11.7383 10.3411 0 0 -1
145 8 5 C 1.97688 10.9978 5.27725 0 0 0
146 8 6 H 1.02556 10.9408 4.75856 0 0 0
88 5 8 H 5.56614 12.7569 1.09611 0 0 0
90 5 10 O 0.742005 12.8579 2.72716 0 0 0
91 5 11 H -0.0937744 13.2332 2.99804 0 0 0
103 6 3 N -0.16677 16.0652 2.53603 1 0 0
104 6 4 C 6.80834 15.946 1.19092 0 0 0
105 6 5 C 0.773369 15.4624 0.451983 0 0 0
106 6 6 H 1.71185 15.1954 0.9254 0 0 0
116 6 16 H 0.573054 16.7328 2.70372 0 0 0
127 7 7 C 3.32086 16.7509 4.86678 0 0 0
128 7 8 H 4.22079 17.2145 4.63985 0 0 0
129 7 9 C 2.13802 16.9863 4.2121 0 0 0
130 7 10 O 2.05434 17.608 3.02483 0 0 0