# LAMMPS data file written by OVITO Basic 3.7.7
160 atoms
160 bonds
248 angles
320 dihedrals
192 impropers
20 atom types
20 bond types
31 angle types
40 dihedral types
24 improper types
0.0 7.3985 xlo xhi
0.0 17.152201 ylo yhi
0.0 11.8201 zlo zhi
0.0 0.0 0.0 xy xz yz

Masses

1 12.011
2 14.007
3 12.011
4 12.011
5 1.008
6 12.011
7 1.008
8 12.011
9 15.999
10 1.008
11 12.011
12 1.008
13 12.011
14 1.008
15 1.008
16 12.011
17 1.008
18 1.008
19 1.008
20 15.999

Pair Coeffs 
								   
       1    0.073621397118793      3.0642583119897876
       2    0.20666777819315       2.9484698761522854
       3    0.0736213971187930     3.3016334362276195
       4    0.073621397118793      3.495214174125108
       5    0.02711902776620       2.3923326175621953
       6    0.0736213971187        3.5161707401942555
       7    0.027119027766203      2.3679372665516332
       8    0.0736213971187930     3.271175220765419
       9    0.160340684101190      2.8768012131984433
      10    0.0                    10.0
      11    0.0736213971187930     3.5161707401942555
      12    0.02711902776620349    2.3679372665516332
      13    0.073621397118793035   3.495214174125108
      14    0.02711902776620349    2.3923326175621953
      15    0.0                    10.0
      16    0.07362139711879303    3.521951889674971
      17    0.027119027766203      2.3276463147192072
      18    0.027119027766203      2.3276463147192072
      19    0.027119027766203      2.3276463147192072
      20    0.121101752658228035   2.9354413159434867

Bond Coeffs 

       1   225.1246058 1.5168893643743603   
       2   786.4530367 1.213590862415616
       3   346.9900078 1.370927666725146
       4   312.4456113 1.4120277404418646 
       5   373.218888  1.3952741832297558
       6   414.3462973 1.3871324019549075
       7   381.5978302 1.3899511529150244 
       8   358.0590826 1.363019220728505
       9   381.5978302 1.3899511529150244 
      10   373.218888  1.3952741832297558
      11   359.5234325 1.0914841179789884
      12   359.5234325 1.0914841179789884
      13   359.5234325 1.0914841179789884
      14   515.3984135 1.0072467328802984
      15   387.4862113 1.0828116756350359
      16   381.3121593 1.0846784592006672
      17   605.4828917 0.9582407040982889
      18   381.3121593 1.0846784592006672
      19   387.4862113 1.0828116756350359
      20   414.3462973 1.3871324019549075

Angle Coeffs 

       1     59.93591091   122.5173357
       2     72.14859327   113.5124025
       3     94.77994753   128.9996767
       4     105.7215352   120.5565201
       5     99.63329168   120.4865226
       6     98.77765133   120.3948725
       7     94.88179724   120.3248751
       8     128.2216148   119.3502497
       9     105.7215352   120.5565201
      10     55.16451913   110.072982
      11     55.16451913   110.072982
      12     55.16451913   110.072982
      13     36.0389108    115.9993398
      14     33.68712084   119.8207435
      15     34.39449036   119.9185919
      16     73.14191357   109.6919924
      17     34.23400849   119.6865356
      18     33.68712084   119.8207435
      19     29.79100191   108.8642827
      20     34.39449036   119.9185919
      21     29.79100191   108.8642827
      22     121.7894756   118.8869599
      23     33.69191479   119.6927339
      24     98.77765133   120.3948725
      25     99.63329168   120.4865226
      26     29.79100191   108.8642827
      27     61.60002954   123.9702618
      28     33.31799915   115.000983
      29     33.69191479   119.6927339
      30     34.23400849   119.6865356
      31     94.88179724   120.3248751

Dihedral Coeffs  

       1      -0.096327421	2.256264387	-9.19266E-07	2.86303E-06
       2      -1.27315E-07	1.12525863	-4.26205E-07	0.349762183
       3      0	7.323860198	0	0
       4      0	7.323860198	0	0
       5      0	7.323860198	0	0
       6      0.908335311	0.297942095	0.059200546	0
       7      0	1.656606118	0	0
       8      0	7.323860198	0	0
       9      0.908335311	0.297942095	0.059200546	0
      10      0	7.323860198	0	0
      11      0	1.656606118	0	0
      12      0	0	0.053298775	0
      13      0	7.323860198	0	0
      14      0	7.323860198	0	0
      15      0	7.323860198	0	0
      16      0	7.323860198	0	0
      17      -0.850428865	4.596365661	-3.06241E-07	-0.463585716
      18      2.466841862	4.696751089	-3.25468E-06	-7.36673E-07
      19      0	7.323860198	0	0
      20      0	7.323860198	0	0
      21      0	7.323860198	0	0
      22      0	7.323860198	0	0
      23      0	7.323860198	0	0
      24      0	7.323860198	0	0
      25      0	7.323860198	0	0
      26      0	7.323860198	0	0
      27      0	7.323860198	0	0
      28      0	7.323860198	0	0
      29      8.07534E-08	0.111918748	1.78714E-07	-0.108612363
      30      8.07534E-08	0.111918748	1.78714E-07	-0.108612363
      31      0	7.323860198	0	0
      32      0.908335311	0.297942095	0.059200546	0
      33      0	0	0.053298775	0
      34      0	7.323860198	0	0
      35      0	7.323860198	0	0
      36      0	7.323860198	0	0
      37      -0.091435971	3.618093994	2.67537E-06	-9.36614E-06
      38      0	0	0.053298775	0
      39      0	7.323860198	0	0
      40      -1.27315E-07	1.12525863	-4.26205E-07	0.349762183

Improper Coeffs 

       1     0.366666667    -1       2 
       2     0.366666667    -1       2 
       3     0.366666667    -1       2 
       4     0.333333333    -1       2 
       5     0.333333333    -1       2 
       6     0.333333333    -1       2 
       7     0.366666667    -1       2 
       8     0.366666667    -1       2 
       9     0.366666667    -1       2 
      10     0.366666667    -1       2 
      11     0.366666667    -1       2 
      12     0.366666667    -1       2 
      13     0.366666667    -1       2 
      14     0.366666667    -1       2 
      15     0.366666667    -1       2 
      16     0.366666667    -1       2 
      17     0.366666667    -1       2 
      18     0.366666667    -1       2 
      19     0.366666667    -1       2 
      20     0.366666667    -1       2 
      21     0.366666667    -1       2 
      22     0.366666667    -1       2 
      23     0.366666667    -1       2 
      24     0.366666667    -1       2   

Atoms  # full

1 1 16 -0.522774 4.3837544715 5.1875993704 2.0803342284
2 1 1 0.660025 5.0192182105 4.4306673965 3.3097424491
3 1 20 -0.578255 6.3145485369 4.3552032466 3.6472082092
4 1 2 -0.450511 4.0813867646 3.8636205003 4.0087897417
5 1 3 0.22733 4.3486864523 3.0720415814 5.1767353039
6 1 13 -0.173499 5.6077629933 3.0677597949 6.0894754215
7 1 11 -0.22757 5.7737895955 2.2513128584 7.2099026789
8 1 8 0.320843 4.6860590441 1.442410467 7.4372090797
9 1 9 -0.525328 4.9143049593 0.6372943716 8.5346989608
10 1 6 -0.22757 3.4152169681 1.4683162103 6.5443156328
11 1 4 -0.173499 3.2514172283 2.2781534895 5.42471532
12 1 17 0.160902 4.8904110194 5.0247419013 1.3203101074
13 1 18 0.160902 4.4686888515 6.0855965769 2.2990093947
14 1 19 0.160901 3.4107078442 5.0067266118 1.7990180076
15 1 15 0.298589 3.168035526 3.9510138195 3.6524076235
16 1 14 0.120412 6.3671446123 3.6345542714 5.9608751973
17 1 12 0.12189 6.6512477986 2.2477976799 7.8579998465
18 1 10 0.40491 4.1061626868 0.3378965273 8.7598759792
19 1 7 0.12189 2.6353443007 0.909066279 6.6818985429
20 1 5 0.120412 2.3756625712 2.3018248507 4.7942320728
21 2 16 -0.522774 3.0147420431 3.3885011296 9.7397639994
22 2 1 0.660025 2.3792887478 4.1454331035 8.5103557788
23 2 20 -0.578255 1.0839584214 4.2208972534 8.1728900186
24 2 2 -0.450511 3.3171201937 4.7124799997 7.8113084862
25 2 3 0.22733 3.0498115279 5.5040589186 6.6433732607
26 2 13 -0.173499 1.7907335214 5.5083407051 5.7306228063
27 2 11 -0.22757 1.6247069192 6.3247876416 4.6101955489
28 2 8 0.320843 2.7124374705 7.133690033 4.3828891482
29 2 9 -0.525328 2.4841915554 7.9388154772 3.285399267
30 2 6 -0.22757 3.9832795466 7.1077842897 5.2757825951
31 2 4 -0.173499 4.1470792863 6.2979470105 6.3953829078
32 2 17 0.160902 2.5080869608 3.5513585987 10.4997984573
33 2 18 0.160902 2.9298076632 2.4905039231 9.5210888331
34 2 19 0.160901 3.9877886704 3.5693738882 10.0210802203
35 2 15 0.298589 4.2304609887 4.6250866805 8.1676906044
36 2 14 0.120412 1.0313519023 4.9415462286 5.8592230306
37 2 12 0.12189 0.7472487161 6.3283028201 3.9620983814
38 2 10 0.40491 3.2923338279 8.2382039727 3.0602222487
39 2 7 0.12189 4.7631522139 7.667034221 5.1381996849
40 2 5 0.120412 5.0228443872 6.2742756493 7.0258661551
41 3 16 -0.522774 6.7139937858 0.8995491204 3.8297148855
42 3 1 0.660025 6.0785300468 0.1426171465 2.6003066648
43 3 20 -0.578255 4.7831997204 0.0671529966 2.2628409047
44 3 2 -0.450511 7.0163719364 8.1516707503 1.9012593723
45 3 3 0.22733 6.7490618051 7.3600918314 0.73331381
46 3 13 -0.173499 5.4899817787 7.3558100449 11.6406719203
47 3 11 -0.22757 5.3239656202 6.5393631084 10.5202446629
48 3 8 0.320843 6.4116871934 5.730460717 10.2929485989
49 3 9 -0.525328 6.1834398127 4.9253446216 9.195448381
50 3 6 -0.22757 0.2840278039 5.7563664603 11.185831709
51 3 4 -0.173499 0.447831029 6.5662037395 0.4853337939
52 3 17 0.160902 6.2073387035 0.7366916513 4.5897493434
53 3 18 0.160902 6.6290594059 1.7975463269 3.6110397192
54 3 19 0.160901 0.2885404131 0.7186763618 4.1110311064
55 3 15 0.298589 0.5312127314 8.2390640695 2.2576414904
56 3 14 0.120412 4.7306001596 7.9226045214 11.7692721445
57 3 12 0.12189 4.4464969734 6.5358479299 9.8721474953
58 3 10 0.40491 6.9915820852 4.6259467773 8.9702713626
59 3 7 0.12189 1.0639004713 5.197116529 11.0482487988
60 3 5 0.120412 1.3235961298 6.5898751007 1.1158170412
61 4 16 -0.522774 0.6845131725 7.6765513796 7.9903833423
62 4 1 0.660025 1.3199664678 8.4334833535 9.219791563
63 4 20 -0.578255 2.6152967943 8.5089475034 9.5572573232
64 4 2 -0.450511 0.3821350219 0.4244297497 9.9188388556
65 4 3 0.22733 0.6494451533 1.2160086686 11.0867844179
66 4 13 -0.173499 1.9085147359 1.2202904551 0.1794263076
67 4 11 -0.22757 2.0745413381 2.0367373916 1.299853565
68 4 8 0.320843 0.9868107868 2.845639783 1.5271599657
69 4 9 -0.525328 1.215056702 3.6507558784 2.6246498469
70 4 6 -0.22757 7.1144687107 2.8197340397 0.6342665189
71 4 4 -0.173499 6.9506654857 2.0098967605 11.334764434
72 4 17 0.160902 1.1911592767 7.8394088487 7.2303592213
73 4 18 0.160902 0.7694475525 6.7785541731 8.2090585087
74 4 19 0.160901 7.1099561016 7.8574241382 7.7090671215
75 4 15 0.298589 6.8672837833 0.3370364305 9.5624567374
76 4 14 0.120412 2.6679033133 0.6534959786 11.8709243112
77 4 12 0.12189 2.9519995412 2.0402525701 1.9479507325
78 4 10 0.40491 0.4069144295 3.9501537227 2.8498268653
79 4 7 0.12189 6.3345960434 3.378983971 0.771849429
80 4 5 0.120412 6.0749108285 1.9862253993 10.7042811867
81 5 16 -0.522774 4.3837544715 13.7636998704 2.0803342284
82 5 1 0.660025 5.0192182105 13.0067678965 3.3097424491
83 5 20 -0.578255 6.3145485369 12.9313037466 3.6472082092
84 5 2 -0.450511 4.0813867646 12.4397210003 4.0087897417
85 5 3 0.22733 4.3486864523 11.6481420814 5.1767353039
86 5 13 -0.173499 5.6077629933 11.6438602949 6.0894754215
87 5 11 -0.22757 5.7737895955 10.8274133584 7.2099026789
88 5 8 0.320843 4.6860590441 10.018510967 7.4372090797
89 5 9 -0.525328 4.9143049593 9.2133948716 8.5346989608
90 5 6 -0.22757 3.4152169681 10.0444167103 6.5443156328
91 5 4 -0.173499 3.2514172283 10.8542539895 5.42471532
92 5 17 0.160902 4.8904110194 13.6008424013 1.3203101074
93 5 18 0.160902 4.4686888515 14.6616970769 2.2990093947
94 5 19 0.160901 3.4107078442 13.5828271118 1.7990180076
95 5 15 0.298589 3.168035526 12.5271143195 3.6524076235
96 5 14 0.120412 6.3671446123 12.2106547714 5.9608751973
97 5 12 0.12189 6.6512477986 10.8238981799 7.8579998465
98 5 10 0.40491 4.1061626868 8.9139970273 8.7598759792
99 5 7 0.12189 2.6353443007 9.485166779 6.6818985429
100 5 5 0.120412 2.3756625712 10.8779253507 4.7942320728
101 6 16 -0.522774 3.0147420431 11.9646016296 9.7397639994
102 6 1 0.660025 2.3792887478 12.7215336035 8.5103557788
103 6 20 -0.578255 1.0839584214 12.7969977534 8.1728900186
104 6 2 -0.450511 3.3171201937 13.2885804997 7.8113084862
105 6 3 0.22733 3.0498115279 14.0801594186 6.6433732607
106 6 13 -0.173499 1.7907335214 14.0844412051 5.7306228063
107 6 11 -0.22757 1.6247069192 14.9008881416 4.6101955489
108 6 8 0.320843 2.7124374705 15.709790533 4.3828891482
109 6 9 -0.525328 2.4841915554 16.5149159772 3.285399267
110 6 6 -0.22757 3.9832795466 15.6838847897 5.2757825951
111 6 4 -0.173499 4.1470792863 14.8740475105 6.3953829078
112 6 17 0.160902 2.5080869608 12.1274590987 10.4997984573
113 6 18 0.160902 2.9298076632 11.0666044231 9.5210888331
114 6 19 0.160901 3.9877886704 12.1454743882 10.0210802203
115 6 15 0.298589 4.2304609887 13.2011871805 8.1676906044
116 6 14 0.120412 1.0313519023 13.5176467286 5.8592230306
117 6 12 0.12189 0.7472487161 14.9044033201 3.9620983814
118 6 10 0.40491 3.2923338279 16.8143044727 3.0602222487
119 6 7 0.12189 4.7631522139 16.243134721 5.1381996849
120 6 5 0.120412 5.0228443872 14.8503761493 7.0258661551
121 7 16 -0.522774 6.7139937858 9.4756496204 3.8297148855
122 7 1 0.660025 6.0785300468 8.7187176465 2.6003066648
123 7 20 -0.578255 4.7831997204 8.6432534966 2.2628409047
124 7 2 -0.450511 7.0163719364 16.7277712503 1.9012593723
125 7 3 0.22733 6.7490618051 15.9361923314 0.73331381
126 7 13 -0.173499 5.4899817787 15.9319105449 11.6406719203
127 7 11 -0.22757 5.3239656202 15.1154636084 10.5202446629
128 7 8 0.320843 6.4116871934 14.306561217 10.2929485989
129 7 9 -0.525328 6.1834398127 13.5014451216 9.195448381
130 7 6 -0.22757 0.2840278039 14.3324669603 11.185831709
131 7 4 -0.173499 0.447831029 15.1423042395 0.4853337939
132 7 17 0.160902 6.2073387035 9.3127921513 4.5897493434
133 7 18 0.160902 6.6290594059 10.3736468269 3.6110397192
134 7 19 0.160901 0.2885404131 9.2947768618 4.1110311064
135 7 15 0.298589 0.5312127314 16.8151645695 2.2576414904
136 7 14 0.120412 4.7306001596 16.4987050214 11.7692721445
137 7 12 0.12189 4.4464969734 15.1119484299 9.8721474953
138 7 10 0.40491 6.9915820852 13.2020472773 8.9702713626
139 7 7 0.12189 1.0639004713 13.773217029 11.0482487988
140 7 5 0.120412 1.3235961298 15.1659756007 1.1158170412
141 8 16 -0.522774 0.6845131725 16.2526518796 7.9903833423
142 8 1 0.660025 1.3199664678 17.0095838535 9.219791563
143 8 20 -0.578255 2.6152967943 17.0850480034 9.5572573232
144 8 2 -0.450511 0.3821350219 9.0005302497 9.9188388556
145 8 3 0.22733 0.6494451533 9.7921091686 11.0867844179
146 8 13 -0.173499 1.9085147359 9.7963909551 0.1794263076
147 8 11 -0.22757 2.0745413381 10.6128378916 1.299853565
148 8 8 0.320843 0.9868107868 11.421740283 1.5271599657
149 8 9 -0.525328 1.215056702 12.2268563784 2.6246498469
150 8 6 -0.22757 7.1144687107 11.3958345397 0.6342665189
151 8 4 -0.173499 6.9506654857 10.5859972605 11.334764434
152 8 17 0.160902 1.1911592767 16.4155093487 7.2303592213
153 8 18 0.160902 0.7694475525 15.3546546731 8.2090585087
154 8 19 0.160901 7.1099561016 16.4335246382 7.7090671215
155 8 15 0.298589 6.8672837833 8.9131369305 9.5624567374
156 8 14 0.120412 2.6679033133 9.2295964786 11.8709243112
157 8 12 0.12189 2.9519995412 10.6163530701 1.9479507325
158 8 10 0.40491 0.4069144295 12.5262542227 2.8498268653
159 8 7 0.12189 6.3345960434 11.955084471 0.771849429
160 8 5 0.120412 6.0749108285 10.5623258993 10.7042811867

Bonds

1 1 2 1
2 2 3 2
3 3 4 2
4 4 5 4
5 5 6 5
6 6 7 6
7 7 8 7
8 8 9 8
9 9 10 8
10 10 11 5
11 11 12 1
12 12 13 1
13 13 14 1
14 14 15 4
15 15 16 6
16 16 17 7
17 17 18 9
18 18 19 10
19 19 20 11
20 20 11 10
21 1 22 21
22 2 23 22
23 3 24 22
24 4 25 24
25 5 26 25
26 6 27 26
27 7 28 27
28 8 29 28
29 9 30 28
30 10 31 25
31 11 32 21
32 12 33 21
33 13 34 21
34 14 35 24
35 15 36 26
36 16 37 27
37 17 38 29
38 18 39 30
39 19 40 31
40 20 31 30
41 1 42 41
42 2 43 42
43 3 44 122
44 4 45 44
45 5 46 45
46 6 47 46
47 7 48 47
48 8 49 48
49 9 50 48
50 10 51 45
51 11 52 41
52 12 53 41
53 13 54 41
54 14 55 44
55 15 56 46
56 16 57 47
57 17 58 49
58 18 59 50
59 19 60 51
60 20 51 50
61 1 62 61
62 2 63 62
63 3 64 142
64 4 65 64
65 5 66 65
66 6 67 66
67 7 68 67
68 8 69 68
69 9 70 68
70 10 71 65
71 11 72 61
72 12 73 61
73 13 74 61
74 14 75 64
75 15 76 66
76 16 77 67
77 17 78 69
78 18 79 70
79 19 80 71
80 20 71 70
81 1 82 81
82 2 83 82
83 3 84 82
84 4 85 84
85 5 86 85
86 6 87 86
87 7 88 87
88 8 89 88
89 9 90 88
90 10 91 85
91 11 92 81
92 12 93 81
93 13 94 81
94 14 95 84
95 15 96 86
96 16 97 87
97 17 98 89
98 18 99 90
99 19 100 91
100 20 91 90
101 1 102 101
102 2 103 102
103 3 104 102
104 4 105 104
105 5 106 105
106 6 107 106
107 7 108 107
108 8 109 108
109 9 110 108
110 10 111 105
111 11 112 101
112 12 113 101
113 13 114 101
114 14 115 104
115 15 116 106
116 16 117 107
117 17 118 109
118 18 119 110
119 19 120 111
120 20 111 110
121 1 122 121
122 2 123 122
123 3 124 42
124 4 125 124
125 5 126 125
126 6 127 126
127 7 128 127
128 8 129 128
129 9 130 128
130 10 131 125
131 11 132 121
132 12 133 121
133 13 134 121
134 14 135 124
135 15 136 126
136 16 137 127
137 17 138 129
138 18 139 130
139 19 140 131
140 20 131 130
141 1 142 141
142 2 143 142
143 3 144 62
144 4 145 144
145 5 146 145
146 6 147 146
147 7 148 147
148 8 149 148
149 9 150 148
150 10 151 145
151 11 152 141
152 12 153 141
153 13 154 141
154 14 155 144
155 15 156 146
156 16 157 147
157 17 158 149
158 18 159 150
159 19 160 151
160 20 151 150

Angles

1 1 1 2 3
2 2 1 2 4
3 3 2 4 5
4 4 4 5 6
5 5 5 6 7
6 6 6 7 8
7 7 7 8 9
8 8 7 8 10
9 9 4 5 11
10 10 2 1 12
11 11 2 1 13
12 12 2 1 14
13 13 2 4 15
14 14 5 6 16
15 15 6 7 17
16 16 8 9 18
17 17 8 10 19
18 18 5 11 20
19 19 13 1 14
20 20 11 10 19
21 21 12 1 14
22 22 6 5 11
23 23 10 11 20
24 24 8 10 11
25 25 5 11 10
26 26 12 1 13
27 27 3 2 4
28 28 5 4 15
29 29 7 6 16
30 30 8 7 17
31 31 9 8 10
32 1 21 22 23
33 2 21 22 24
34 3 22 24 25
35 4 24 25 26
36 5 25 26 27
37 6 26 27 28
38 7 27 28 29
39 8 27 28 30
40 9 24 25 31
41 10 22 21 32
42 11 22 21 33
43 12 22 21 34
44 13 22 24 35
45 14 25 26 36
46 15 26 27 37
47 16 28 29 38
48 17 28 30 39
49 18 25 31 40
50 19 33 21 34
51 20 31 30 39
52 21 32 21 34
53 22 26 25 31
54 23 30 31 40
55 24 28 30 31
56 25 25 31 30
57 26 32 21 33
58 27 23 22 24
59 28 25 24 35
60 29 27 26 36
61 30 28 27 37
62 31 29 28 30
63 1 41 42 43
64 2 41 42 124
65 3 122 44 45
66 4 44 45 46
67 5 45 46 47
68 6 46 47 48
69 7 47 48 49
70 8 47 48 50
71 9 44 45 51
72 10 42 41 52
73 11 42 41 53
74 12 42 41 54
75 13 122 44 55
76 14 45 46 56
77 15 46 47 57
78 16 48 49 58
79 17 48 50 59
80 18 45 51 60
81 19 53 41 54
82 20 51 50 59
83 21 52 41 54
84 22 46 45 51
85 23 50 51 60
86 24 48 50 51
87 25 45 51 50
88 26 52 41 53
89 27 43 42 124
90 28 45 44 55
91 29 47 46 56
92 30 48 47 57
93 31 49 48 50
94 1 61 62 63
95 2 61 62 144
96 3 142 64 65
97 4 64 65 66
98 5 65 66 67
99 6 66 67 68
100 7 67 68 69
101 8 67 68 70
102 9 64 65 71
103 10 62 61 72
104 11 62 61 73
105 12 62 61 74
106 13 142 64 75
107 14 65 66 76
108 15 66 67 77
109 16 68 69 78
110 17 68 70 79
111 18 65 71 80
112 19 73 61 74
113 20 71 70 79
114 21 72 61 74
115 22 66 65 71
116 23 70 71 80
117 24 68 70 71
118 25 65 71 70
119 26 72 61 73
120 27 63 62 144
121 28 65 64 75
122 29 67 66 76
123 30 68 67 77
124 31 69 68 70
125 1 81 82 83
126 2 81 82 84
127 3 82 84 85
128 4 84 85 86
129 5 85 86 87
130 6 86 87 88
131 7 87 88 89
132 8 87 88 90
133 9 84 85 91
134 10 82 81 92
135 11 82 81 93
136 12 82 81 94
137 13 82 84 95
138 14 85 86 96
139 15 86 87 97
140 16 88 89 98
141 17 88 90 99
142 18 85 91 100
143 19 93 81 94
144 20 91 90 99
145 21 92 81 94
146 22 86 85 91
147 23 90 91 100
148 24 88 90 91
149 25 85 91 90
150 26 92 81 93
151 27 83 82 84
152 28 85 84 95
153 29 87 86 96
154 30 88 87 97
155 31 89 88 90
156 1 101 102 103
157 2 101 102 104
158 3 102 104 105
159 4 104 105 106
160 5 105 106 107
161 6 106 107 108
162 7 107 108 109
163 8 107 108 110
164 9 104 105 111
165 10 102 101 112
166 11 102 101 113
167 12 102 101 114
168 13 102 104 115
169 14 105 106 116
170 15 106 107 117
171 16 108 109 118
172 17 108 110 119
173 18 105 111 120
174 19 113 101 114
175 20 111 110 119
176 21 112 101 114
177 22 106 105 111
178 23 110 111 120
179 24 108 110 111
180 25 105 111 110
181 26 112 101 113
182 27 103 102 104
183 28 105 104 115
184 29 107 106 116
185 30 108 107 117
186 31 109 108 110
187 1 121 122 123
188 2 121 122 44
189 3 42 124 125
190 4 124 125 126
191 5 125 126 127
192 6 126 127 128
193 7 127 128 129
194 8 127 128 130
195 9 124 125 131
196 10 122 121 132
197 11 122 121 133
198 12 122 121 134
199 13 42 124 135
200 14 125 126 136
201 15 126 127 137
202 16 128 129 138
203 17 128 130 139
204 18 125 131 140
205 19 133 121 134
206 20 131 130 139
207 21 132 121 134
208 22 126 125 131
209 23 130 131 140
210 24 128 130 131
211 25 125 131 130
212 26 132 121 133
213 27 123 122 44
214 28 125 124 135
215 29 127 126 136
216 30 128 127 137
217 31 129 128 130
218 1 141 142 143
219 2 141 142 64
220 3 62 144 145
221 4 144 145 146
222 5 145 146 147
223 6 146 147 148
224 7 147 148 149
225 8 147 148 150
226 9 144 145 151
227 10 142 141 152
228 11 142 141 153
229 12 142 141 154
230 13 62 144 155
231 14 145 146 156
232 15 146 147 157
233 16 148 149 158
234 17 148 150 159
235 18 145 151 160
236 19 153 141 154
237 20 151 150 159
238 21 152 141 154
239 22 146 145 151
240 23 150 151 160
241 24 148 150 151
242 25 145 151 150
243 26 152 141 153
244 27 143 142 64
245 28 145 144 155
246 29 147 146 156
247 30 148 147 157
248 31 149 148 150

Dihedrals

1 1 5 4 2 1
2 2 6 5 4 2
3 3 7 6 5 4
4 4 8 7 6 5
5 5 9 8 7 6
6 6 12 1 2 3
7 7 18 9 8 7
8 8 20 11 10 19
9 9 13 1 2 3
10 10 19 10 8 7
11 11 18 9 8 10
12 12 12 1 2 4
13 13 10 11 5 4
14 14 19 10 8 9
15 15 20 11 5 6
16 16 17 7 8 9
17 17 5 4 2 3
18 18 15 4 2 3
19 19 8 10 11 5
20 20 16 6 7 8
21 21 11 5 6 7
22 22 16 6 5 4
23 23 17 7 8 10
24 24 16 6 5 11
25 25 10 8 7 6
26 26 11 10 8 9
27 27 11 10 8 7
28 28 20 11 10 8
29 29 15 4 5 6
30 30 15 4 5 11
31 31 17 7 6 5
32 32 14 1 2 3
33 33 13 1 2 4
34 34 20 11 5 4
35 35 10 11 5 6
36 36 19 10 11 5
37 37 15 4 2 1
38 38 14 1 2 4
39 39 17 7 6 16
40 40 11 5 4 2
41 1 25 24 22 21
42 2 26 25 24 22
43 3 27 26 25 24
44 4 28 27 26 25
45 5 29 28 27 26
46 6 32 21 22 23
47 7 38 29 28 27
48 8 40 31 30 39
49 9 33 21 22 23
50 10 39 30 28 27
51 11 38 29 28 30
52 12 32 21 22 24
53 13 30 31 25 24
54 14 39 30 28 29
55 15 40 31 25 26
56 16 37 27 28 29
57 17 25 24 22 23
58 18 35 24 22 23
59 19 28 30 31 25
60 20 36 26 27 28
61 21 31 25 26 27
62 22 36 26 25 24
63 23 37 27 28 30
64 24 36 26 25 31
65 25 30 28 27 26
66 26 31 30 28 29
67 27 31 30 28 27
68 28 40 31 30 28
69 29 35 24 25 26
70 30 35 24 25 31
71 31 37 27 26 25
72 32 34 21 22 23
73 33 33 21 22 24
74 34 40 31 25 24
75 35 30 31 25 26
76 36 39 30 31 25
77 37 35 24 22 21
78 38 34 21 22 24
79 39 37 27 26 36
80 40 31 25 24 22
81 1 45 44 122 121
82 2 46 45 44 122
83 3 47 46 45 44
84 4 48 47 46 45
85 5 49 48 47 46
86 6 52 41 42 43
87 7 58 49 48 47
88 8 60 51 50 59
89 9 53 41 42 43
90 10 59 50 48 47
91 11 58 49 48 50
92 12 52 41 42 124
93 13 50 51 45 44
94 14 59 50 48 49
95 15 60 51 45 46
96 16 57 47 48 49
97 17 45 44 122 123
98 18 55 44 122 123
99 19 48 50 51 45
100 20 56 46 47 48
101 21 51 45 46 47
102 22 56 46 45 44
103 23 57 47 48 50
104 24 56 46 45 51
105 25 50 48 47 46
106 26 51 50 48 49
107 27 51 50 48 47
108 28 60 51 50 48
109 29 55 44 45 46
110 30 55 44 45 51
111 31 57 47 46 45
112 32 54 41 42 43
113 33 53 41 42 124
114 34 60 51 45 44
115 35 50 51 45 46
116 36 59 50 51 45
117 37 55 44 122 121
118 38 54 41 42 124
119 39 57 47 46 56
120 40 51 45 44 122
121 1 65 64 142 141
122 2 66 65 64 142
123 3 67 66 65 64
124 4 68 67 66 65
125 5 69 68 67 66
126 6 72 61 62 63
127 7 78 69 68 67
128 8 80 71 70 79
129 9 73 61 62 63
130 10 79 70 68 67
131 11 78 69 68 70
132 12 72 61 62 144
133 13 70 71 65 64
134 14 79 70 68 69
135 15 80 71 65 66
136 16 77 67 68 69
137 17 65 64 142 143
138 18 75 64 142 143
139 19 68 70 71 65
140 20 76 66 67 68
141 21 71 65 66 67
142 22 76 66 65 64
143 23 77 67 68 70
144 24 76 66 65 71
145 25 70 68 67 66
146 26 71 70 68 69
147 27 71 70 68 67
148 28 80 71 70 68
149 29 75 64 65 66
150 30 75 64 65 71
151 31 77 67 66 65
152 32 74 61 62 63
153 33 73 61 62 144
154 34 80 71 65 64
155 35 70 71 65 66
156 36 79 70 71 65
157 37 75 64 142 141
158 38 74 61 62 144
159 39 77 67 66 76
160 40 71 65 64 142
161 1 85 84 82 81
162 2 86 85 84 82
163 3 87 86 85 84
164 4 88 87 86 85
165 5 89 88 87 86
166 6 92 81 82 83
167 7 98 89 88 87
168 8 100 91 90 99
169 9 93 81 82 83
170 10 99 90 88 87
171 11 98 89 88 90
172 12 92 81 82 84
173 13 90 91 85 84
174 14 99 90 88 89
175 15 100 91 85 86
176 16 97 87 88 89
177 17 85 84 82 83
178 18 95 84 82 83
179 19 88 90 91 85
180 20 96 86 87 88
181 21 91 85 86 87
182 22 96 86 85 84
183 23 97 87 88 90
184 24 96 86 85 91
185 25 90 88 87 86
186 26 91 90 88 89
187 27 91 90 88 87
188 28 100 91 90 88
189 29 95 84 85 86
190 30 95 84 85 91
191 31 97 87 86 85
192 32 94 81 82 83
193 33 93 81 82 84
194 34 100 91 85 84
195 35 90 91 85 86
196 36 99 90 91 85
197 37 95 84 82 81
198 38 94 81 82 84
199 39 97 87 86 96
200 40 91 85 84 82
201 1 105 104 102 101
202 2 106 105 104 102
203 3 107 106 105 104
204 4 108 107 106 105
205 5 109 108 107 106
206 6 112 101 102 103
207 7 118 109 108 107
208 8 120 111 110 119
209 9 113 101 102 103
210 10 119 110 108 107
211 11 118 109 108 110
212 12 112 101 102 104
213 13 110 111 105 104
214 14 119 110 108 109
215 15 120 111 105 106
216 16 117 107 108 109
217 17 105 104 102 103
218 18 115 104 102 103
219 19 108 110 111 105
220 20 116 106 107 108
221 21 111 105 106 107
222 22 116 106 105 104
223 23 117 107 108 110
224 24 116 106 105 111
225 25 110 108 107 106
226 26 111 110 108 109
227 27 111 110 108 107
228 28 120 111 110 108
229 29 115 104 105 106
230 30 115 104 105 111
231 31 117 107 106 105
232 32 114 101 102 103
233 33 113 101 102 104
234 34 120 111 105 104
235 35 110 111 105 106
236 36 119 110 111 105
237 37 115 104 102 101
238 38 114 101 102 104
239 39 117 107 106 116
240 40 111 105 104 102
241 1 125 124 42 41
242 2 126 125 124 42
243 3 127 126 125 124
244 4 128 127 126 125
245 5 129 128 127 126
246 6 132 121 122 123
247 7 138 129 128 127
248 8 140 131 130 139
249 9 133 121 122 123
250 10 139 130 128 127
251 11 138 129 128 130
252 12 132 121 122 44
253 13 130 131 125 124
254 14 139 130 128 129
255 15 140 131 125 126
256 16 137 127 128 129
257 17 125 124 42 43
258 18 135 124 42 43
259 19 128 130 131 125
260 20 136 126 127 128
261 21 131 125 126 127
262 22 136 126 125 124
263 23 137 127 128 130
264 24 136 126 125 131
265 25 130 128 127 126
266 26 131 130 128 129
267 27 131 130 128 127
268 28 140 131 130 128
269 29 135 124 125 126
270 30 135 124 125 131
271 31 137 127 126 125
272 32 134 121 122 123
273 33 133 121 122 44
274 34 140 131 125 124
275 35 130 131 125 126
276 36 139 130 131 125
277 37 135 124 42 41
278 38 134 121 122 44
279 39 137 127 126 136
280 40 131 125 124 42
281 1 145 144 62 61
282 2 146 145 144 62
283 3 147 146 145 144
284 4 148 147 146 145
285 5 149 148 147 146
286 6 152 141 142 143
287 7 158 149 148 147
288 8 160 151 150 159
289 9 153 141 142 143
290 10 159 150 148 147
291 11 158 149 148 150
292 12 152 141 142 64
293 13 150 151 145 144
294 14 159 150 148 149
295 15 160 151 145 146
296 16 157 147 148 149
297 17 145 144 62 63
298 18 155 144 62 63
299 19 148 150 151 145
300 20 156 146 147 148
301 21 151 145 146 147
302 22 156 146 145 144
303 23 157 147 148 150
304 24 156 146 145 151
305 25 150 148 147 146
306 26 151 150 148 149
307 27 151 150 148 147
308 28 160 151 150 148
309 29 155 144 145 146
310 30 155 144 145 151
311 31 157 147 146 145
312 32 154 141 142 143
313 33 153 141 142 64
314 34 160 151 145 144
315 35 150 151 145 146
316 36 159 150 151 145
317 37 155 144 62 61
318 38 154 141 142 64
319 39 157 147 146 156
320 40 151 145 144 62

Impropers

1 1 2 3 4 1
2 2 2 4 1 3
3 3 2 1 3 4
4 4 4 2 5 15
5 5 4 5 15 2
6 6 4 15 2 5
7 7 5 4 11 6
8 8 5 11 6 4
9 9 5 6 4 11
10 10 11 5 20 10
11 11 11 20 10 5
12 12 11 10 5 20
13 13 6 5 7 16
14 14 6 7 16 5
15 15 6 16 5 7
16 16 10 11 19 8
17 17 10 19 8 11
18 18 10 8 11 19
19 19 8 10 9 7
20 20 8 9 7 10
21 21 8 7 10 9
22 22 7 8 17 6
23 23 7 17 6 8
24 24 7 6 8 17
25 1 22 23 24 21
26 2 22 24 21 23
27 3 22 21 23 24
28 4 24 22 25 35
29 5 24 25 35 22
30 6 24 35 22 25
31 7 25 24 31 26
32 8 25 31 26 24
33 9 25 26 24 31
34 10 31 25 40 30
35 11 31 40 30 25
36 12 31 30 25 40
37 13 26 25 27 36
38 14 26 27 36 25
39 15 26 36 25 27
40 16 30 31 39 28
41 17 30 39 28 31
42 18 30 28 31 39
43 19 28 30 29 27
44 20 28 29 27 30
45 21 28 27 30 29
46 22 27 28 37 26
47 23 27 37 26 28
48 24 27 26 28 37
49 1 42 43 124 41
50 2 122 44 121 123
51 3 42 41 43 124
52 4 124 42 125 135
53 5 44 45 55 122
54 6 44 55 122 45
55 7 45 44 51 46
56 8 45 51 46 44
57 9 45 46 44 51
58 10 51 45 60 50
59 11 51 60 50 45
60 12 51 50 45 60
61 13 46 45 47 56
62 14 46 47 56 45
63 15 46 56 45 47
64 16 50 51 59 48
65 17 50 59 48 51
66 18 50 48 51 59
67 19 48 50 49 47
68 20 48 49 47 50
69 21 48 47 50 49
70 22 47 48 57 46
71 23 47 57 46 48
72 24 47 46 48 57
73 1 62 63 144 61
74 2 142 64 141 143
75 3 62 61 63 144
76 4 144 62 145 155
77 5 64 65 75 142
78 6 64 75 142 65
79 7 65 64 71 66
80 8 65 71 66 64
81 9 65 66 64 71
82 10 71 65 80 70
83 11 71 80 70 65
84 12 71 70 65 80
85 13 66 65 67 76
86 14 66 67 76 65
87 15 66 76 65 67
88 16 70 71 79 68
89 17 70 79 68 71
90 18 70 68 71 79
91 19 68 70 69 67
92 20 68 69 67 70
93 21 68 67 70 69
94 22 67 68 77 66
95 23 67 77 66 68
96 24 67 66 68 77
97 1 82 83 84 81
98 2 82 84 81 83
99 3 82 81 83 84
100 4 84 82 85 95
101 5 84 85 95 82
102 6 84 95 82 85
103 7 85 84 91 86
104 8 85 91 86 84
105 9 85 86 84 91
106 10 91 85 100 90
107 11 91 100 90 85
108 12 91 90 85 100
109 13 86 85 87 96
110 14 86 87 96 85
111 15 86 96 85 87
112 16 90 91 99 88
113 17 90 99 88 91
114 18 90 88 91 99
115 19 88 90 89 87
116 20 88 89 87 90
117 21 88 87 90 89
118 22 87 88 97 86
119 23 87 97 86 88
120 24 87 86 88 97
121 1 102 103 104 101
122 2 102 104 101 103
123 3 102 101 103 104
124 4 104 102 105 115
125 5 104 105 115 102
126 6 104 115 102 105
127 7 105 104 111 106
128 8 105 111 106 104
129 9 105 106 104 111
130 10 111 105 120 110
131 11 111 120 110 105
132 12 111 110 105 120
133 13 106 105 107 116
134 14 106 107 116 105
135 15 106 116 105 107
136 16 110 111 119 108