ITEM: TIMESTEP
0
ITEM: NUMBER OF ATOMS
160
ITEM: BOX BOUNDS xy xz yz pp pp pp
0.0000000000000000e+00 7.3985000000000003e+00 0.0000000000000000e+00
0.0000000000000000e+00 1.7152201000000002e+01 0.0000000000000000e+00
0.0000000000000000e+00 1.1820100000000000e+01 0.0000000000000000e+00
ITEM: ATOMS id mol type element x y z ix iy iz
1 1 16 C 4.38375 5.1876 2.08033 0 0 0
2 1 1 C 5.01922 4.43067 3.30974 0 0 0
3 1 20 O 6.31455 4.3552 3.64721 0 0 0
4 1 2 N 4.08139 3.86362 4.00879 0 0 0
5 1 3 C 4.34869 3.07204 5.17674 0 0 0
11 1 4 C 3.25142 2.27815 5.42472 0 0 0
12 1 17 H 4.89041 5.02474 1.32031 0 0 0
14 1 19 H 3.41071 5.00673 1.79902 0 0 0
15 1 15 H 3.16804 3.95101 3.65241 0 0 0
20 1 5 H 2.37566 2.30182 4.79423 0 0 0
26 2 13 C 1.79073 5.50834 5.73062 0 0 0
36 2 14 H 1.03135 4.94155 5.85922 0 0 0
41 3 16 C 6.71399 0.899549 3.82971 0 0 0
42 3 1 C 6.07853 0.142617 2.60031 0 0 0
43 3 20 O 4.7832 0.067153 2.26284 0 0 0
52 3 17 H 6.20734 0.736692 4.58975 0 0 0
53 3 18 H 6.62906 1.79755 3.61104 0 0 0
54 3 19 H 0.28854 0.718676 4.11103 0 0 0
66 4 13 C 1.90851 1.22029 0.179426 0 0 0
67 4 11 C 2.07454 2.03674 1.29985 0 0 0
68 4 8 C 0.986811 2.84564 1.52716 0 0 0
69 4 9 O 1.21506 3.65076 2.62465 0 0 0
70 4 6 C 7.11447 2.81973 0.634267 0 0 0
76 4 14 H 2.6679 0.653496 0.0508243 0 0 1
77 4 12 H 2.952 2.04025 1.94795 0 0 0
78 4 10 H 0.406914 3.95015 2.84983 0 0 0
79 4 7 H 6.3346 3.37898 0.771849 0 0 0
13 1 18 H 4.46869 6.0856 2.29901 0 0 0
27 2 11 C 1.62471 6.32479 4.6102 0 0 0
28 2 8 C 2.71244 7.13369 4.38289 0 0 0
29 2 9 O 2.48419 7.93882 3.2854 0 0 0
30 2 6 C 3.98328 7.10778 5.27578 0 0 0
37 2 12 H 0.747249 6.3283 3.9621 0 0 0
38 2 10 H 3.29233 8.2382 3.06022 0 0 0
39 2 7 H 4.76315 7.66703 5.1382 0 0 0
44 3 2 N 7.01637 8.15167 1.90126 0 0 0
45 3 3 C 6.74906 7.36009 0.733314 0 0 0
51 3 4 C 0.447831 6.5662 0.485334 0 0 0
55 3 15 H 0.531213 8.23906 2.25764 0 0 0
60 3 5 H 1.3236 6.58988 1.11582 0 0 0
91 5 4 C 3.25142 10.8543 5.42472 0 0 0
100 5 5 H 2.37566 10.8779 4.79423 0 0 0
121 7 16 C 6.71399 9.47565 3.82971 0 0 0
122 7 1 C 6.07853 8.71872 2.60031 0 0 0
123 7 20 O 4.7832 8.64325 2.26284 0 0 0
132 7 17 H 6.20734 9.31279 4.58975 0 0 0
133 7 18 H 6.62906 10.3736 3.61104 0 0 0
134 7 19 H 0.28854 9.29478 4.11103 0 0 0
146 8 13 C 1.90851 9.79639 0.179426 0 0 0
147 8 11 C 2.07454 10.6128 1.29985 0 0 0
148 8 8 C 0.986811 11.4217 1.52716 0 0 0
150 8 6 C 7.11447 11.3958 0.634267 0 0 0
156 8 14 H 2.6679 9.2296 0.0508243 0 0 1
157 8 12 H 2.952 10.6164 1.94795 0 0 0
81 5 16 C 4.38375 13.7637 2.08033 0 0 0
82 5 1 C 5.01922 13.0068 3.30974 0 0 0
83 5 20 O 6.31455 12.9313 3.64721 0 0 0
84 5 2 N 4.08139 12.4397 4.00879 0 0 0
85 5 3 C 4.34869 11.6481 5.17674 0 0 0
92 5 17 H 4.89041 13.6008 1.32031 0 0 0
93 5 18 H 4.46869 14.6617 2.29901 0 0 0
94 5 19 H 3.41071 13.5828 1.79902 0 0 0
95 5 15 H 3.16804 12.5271 3.65241 0 0 0
106 6 13 C 1.79073 14.0844 5.73062 0 0 0
107 6 11 C 1.62471 14.9009 4.6102 0 0 0
108 6 8 C 2.71244 15.7098 4.38289 0 0 0
109 6 9 O 2.48419 16.5149 3.2854 0 0 0
110 6 6 C 3.98328 15.6839 5.27578 0 0 0
116 6 14 H 1.03135 13.5176 5.85922 0 0 0
117 6 12 H 0.747249 14.9044 3.9621 0 0 0
118 6 10 H 3.29233 16.8143 3.06022 0 0 0
119 6 7 H 4.76315 16.2431 5.1382 0 0 0
124 7 2 N 7.01637 16.7278 1.90126 0 0 0
125 7 3 C 6.74906 15.9362 0.733314 0 0 0
131 7 4 C 0.447831 15.1423 0.485334 0 0 0
135 7 15 H 0.531213 16.8152 2.25764 0 0 0
140 7 5 H 1.3236 15.166 1.11582 0 0 0
149 8 9 O 1.21506 12.2269 2.62465 0 0 0
158 8 10 H 0.406914 12.5263 2.84983 0 0 0
159 8 7 H 6.3346 11.9551 0.771849 0 0 0
6 1 13 C 5.60776 3.06776 6.08948 0 0 0
7 1 11 C 5.77379 2.25131 7.2099 0 0 0
8 1 8 C 4.68606 1.44241 7.43721 0 0 0
9 1 9 O 4.9143 0.637294 8.5347 0 0 0
10 1 6 C 3.41522 1.46832 6.54432 0 0 0
16 1 14 H 6.36714 3.63455 5.96088 0 0 0
17 1 12 H 6.65125 2.2478 7.858 0 0 0
18 1 10 H 4.10616 0.337897 8.75988 0 0 0
19 1 7 H 2.63534 0.909066 6.6819 0 0 0
21 2 16 C 3.01474 3.3885 9.73976 0 0 0
22 2 1 C 2.37929 4.14543 8.51036 0 0 0
23 2 20 O 1.08396 4.2209 8.17289 0 0 0
24 2 2 N 3.31712 4.71248 7.81131 0 0 0
25 2 3 C 3.04981 5.50406 6.64337 0 0 0
32 2 17 H 2.50809 3.55136 10.4998 0 0 0
33 2 18 H 2.92981 2.4905 9.52109 0 0 0
34 2 19 H 3.98779 3.56937 10.0211 0 0 0
35 2 15 H 4.23046 4.62509 8.16769 0 0 0
49 3 9 O 6.18344 4.92534 9.19545 0 0 0
58 3 10 H 6.99158 4.62595 8.97027 0 0 0
59 3 7 H 1.0639 5.19712 11.0482 0 0 0
64 4 2 N 0.382135 0.42443 9.91884 0 0 0
65 4 3 C 0.649445 1.21601 11.0868 0 0 0
71 4 4 C 6.95067 2.0099 11.3348 0 0 0
75 4 15 H 6.86728 0.337036 9.56246 0 0 0
80 4 5 H 6.07491 1.98623 10.7043 0 0 0
31 2 4 C 4.14708 6.29795 6.39538 0 0 0
40 2 5 H 5.02284 6.27428 7.02587 0 0 0
46 3 13 C 5.48998 7.35581 11.6407 0 0 0
47 3 11 C 5.32397 6.53936 10.5202 0 0 0
48 3 8 C 6.41169 5.73046 10.2929 0 0 0
50 3 6 C 0.284028 5.75637 11.1858 0 0 0
56 3 14 H 4.7306 7.9226 11.7693 0 0 0
57 3 12 H 4.4465 6.53585 9.87215 0 0 0
61 4 16 C 0.684513 7.67655 7.99038 0 0 0
62 4 1 C 1.31997 8.43348 9.21979 0 0 0
63 4 20 O 2.6153 8.50895 9.55726 0 0 0
72 4 17 H 1.19116 7.83941 7.23036 0 0 0
73 4 18 H 0.769448 6.77855 8.20906 0 0 0
74 4 19 H 7.10996 7.85742 7.70907 0 0 0
87 5 11 C 5.77379 10.8274 7.2099 0 0 0
88 5 8 C 4.68606 10.0185 7.43721 0 0 0
89 5 9 O 4.9143 9.21339 8.5347 0 0 0
90 5 6 C 3.41522 10.0444 6.54432 0 0 0
97 5 12 H 6.65125 10.8239 7.858 0 0 0
98 5 10 H 4.10616 8.914 8.75988 0 0 0
99 5 7 H 2.63534 9.48517 6.6819 0 0 0
113 6 18 H 2.92981 11.0666 9.52109 0 0 0
144 8 2 N 0.382135 9.00053 9.91884 0 0 0
145 8 3 C 0.649445 9.79211 11.0868 0 0 0
151 8 4 C 6.95067 10.586 11.3348 0 0 0
155 8 15 H 6.86728 8.91314 9.56246 0 0 0
160 8 5 H 6.07491 10.5623 10.7043 0 0 0
86 5 13 C 5.60776 11.6439 6.08948 0 0 0
96 5 14 H 6.36714 12.2107 5.96088 0 0 0
101 6 16 C 3.01474 11.9646 9.73976 0 0 0
102 6 1 C 2.37929 12.7215 8.51036 0 0 0
103 6 20 O 1.08396 12.797 8.17289 0 0 0
104 6 2 N 3.31712 13.2886 7.81131 0 0 0
105 6 3 C 3.04981 14.0802 6.64337 0 0 0
111 6 4 C 4.14708 14.874 6.39538 0 0 0
112 6 17 H 2.50809 12.1275 10.4998 0 0 0
114 6 19 H 3.98779 12.1455 10.0211 0 0 0
115 6 15 H 4.23046 13.2012 8.16769 0 0 0
120 6 5 H 5.02284 14.8504 7.02587 0 0 0
126 7 13 C 5.48998 15.9319 11.6407 0 0 0
127 7 11 C 5.32397 15.1155 10.5202 0 0 0
128 7 8 C 6.41169 14.3066 10.2929 0 0 0
129 7 9 O 6.18344 13.5014 9.19545 0 0 0
130 7 6 C 0.284028 14.3325 11.1858 0 0 0
136 7 14 H 4.7306 16.4987 11.7693 0 0 0
137 7 12 H 4.4465 15.1119 9.87215 0 0 0
138 7 10 H 6.99158 13.202 8.97027 0 0 0
139 7 7 H 1.0639 13.7732 11.0482 0 0 0
141 8 16 C 0.684513 16.2527 7.99038 0 0 0
142 8 1 C 1.31997 17.0096 9.21979 0 0 0
143 8 20 O 2.6153 17.085 9.55726 0 0 0
152 8 17 H 1.19116 16.4155 7.23036 0 0 0
153 8 18 H 0.769448 15.3547 8.20906 0 0 0
154 8 19 H 7.10996 16.4335 7.70907 0 0 0
ITEM: TIMESTEP
25
ITEM: NUMBER OF ATOMS
160
ITEM: BOX BOUNDS xy xz yz pp pp pp
0.0000000000000000e+00 7.3985000000000003e+00 0.0000000000000000e+00
0.0000000000000000e+00 1.7152201000000002e+01 0.0000000000000000e+00
0.0000000000000000e+00 1.1820100000000000e+01 0.0000000000000000e+00
ITEM: ATOMS id mol type element x y z ix iy iz
1 1 16 C 4.48078 5.24282 2.08279 0 0 0
2 1 1 C 5.13116 4.48176 3.255 0 0 0
3 1 20 O 6.40511 4.33191 3.23287 0 0 0
4 1 2 N 4.16251 3.97338 4.10207 0 0 0
5 1 3 C 4.3566 3.14612 5.22675 0 0 0
11 1 4 C 3.27539 2.3691 5.74694 0 0 0
12 1 17 H 5.12139 5.14976 1.09978 0 0 0
14 1 19 H 3.42932 4.87941 2.00132 0 0 0
15 1 15 H 3.24499 4.30413 3.89381 0 0 0
20 1 5 H 2.31299 2.43193 5.29531 0 0 0
26 2 13 C 1.65121 5.52847 5.80995 0 0 0
36 2 14 H 0.923445 4.74856 6.10374 0 0 0
41 3 16 C 6.59772 0.85957 3.75369 0 0 0
42 3 1 C 5.9813 0.266859 2.53393 0 0 0
43 3 20 O 4.6972 0.307133 2.47519 0 0 0
52 3 17 H 5.84814 0.921413 4.65393 0 0 0
53 3 18 H 6.67577 2.0549 3.72554 0 0 0
54 3 19 H 0.194002 0.352182 3.97702 0 0 0
66 4 13 C 1.90973 1.10288 0.183167 0 0 0
67 4 11 C 2.16418 2.01688 1.25608 0 0 0
68 4 8 C 1.0789 2.92328 1.57725 0 0 0
69 4 9 O 1.16053 3.68872 2.66657 0 0 0
70 4 6 C 7.30009 2.97844 0.82662 0 0 0
76 4 14 H 2.61699 0.257609 -0.075043 0 0 1
77 4 12 H 3.08984 2.0134 1.80468 0 0 0
78 4 10 H 0.206154 4.06216 2.85664 0 0 0
79 4 7 H 6.57125 3.75754 1.01215 0 0 0
13 1 18 H 4.54128 6.43281 2.25465 0 0 0
27 2 11 C 1.43328 6.36329 4.67157 0 0 0
28 2 8 C 2.50342 7.19708 4.27276 0 0 0
29 2 9 O 2.39795 7.90478 3.13611 0 0 0
30 2 6 C 3.71565 7.25474 4.96583 0 0 0
37 2 12 H 0.46446 6.28523 4.15772 0 0 0
38 2 10 H 3.33752 8.28351 2.9738 0 0 0
39 2 7 H 4.49534 7.93429 4.60365 0 0 0
44 3 2 N 6.83964 8.26221 1.79079 0 0 0
45 3 3 C 6.62116 7.35912 0.708711 0 0 0
51 3 4 C 0.275179 6.50317 0.305558 0 0 0
55 3 15 H 0.353983 8.49601 2.11853 0 0 0
60 3 5 H 1.17871 6.50541 0.880264 0 0 0
91 5 4 C 3.3717 10.821 5.67704 0 0 0
100 5 5 H 2.43198 10.8034 5.1406 0 0 0
121 7 16 C 6.56157 9.53746 3.73312 0 0 0
122 7 1 C 5.89787 8.99083 2.50511 0 0 0
123 7 20 O 4.62344 8.92302 2.54891 0 0 0
132 7 17 H 5.86132 9.60636 4.68664 0 0 0
133 7 18 H 6.79048 10.696 3.70312 0 0 0
134 7 19 H 0.118659 8.98555 3.93985 0 0 0
146 8 13 C 1.91137 9.71733 -0.0341135 0 0 0
147 8 11 C 2.14288 10.6157 1.05388 0 0 0
148 8 8 C 1.00239 11.3489 1.53057 0 0 0
150 8 6 C 7.16358 11.3016 0.897047 0 0 0
156 8 14 H 2.71343 9.05196 -0.413092 0 0 1
157 8 12 H 3.11054 10.6593 1.54132 0 0 0
81 5 16 C 4.48544 13.9339 2.22266 0 0 0
82 5 1 C 5.17309 13.2121 3.42748 0 0 0
83 5 20 O 6.46326 13.1046 3.35802 0 0 0
84 5 2 N 4.2459 12.5082 4.12951 0 0 0
85 5 3 C 4.41513 11.6707 5.27671 0 0 0
92 5 17 H 5.0409 13.7474 1.17289 0 0 0
93 5 18 H 4.62034 15.1153 2.24714 0 0 0
94 5 19 H 3.38135 13.6781 2.19013 0 0 0
95 5 15 H 3.3424 12.8698 3.83821 0 0 0
106 6 13 C 1.72534 14.1663 5.91936 0 0 0
107 6 11 C 1.43374 15.0392 4.85037 0 0 0
108 6 8 C 2.52148 15.7902 4.36027 0 0 0
109 6 9 O 2.44491 16.4097 3.15321 0 0 0
110 6 6 C 3.77472 15.8137 5.00144 0 0 0
116 6 14 H 0.924808 13.4754 6.32824 0 0 0
117 6 12 H 0.458323 14.9527 4.3742 0 0 0
118 6 10 H 3.35463 16.8705 2.96594 0 0 0
119 6 7 H 4.55119 16.3701 4.5877 0 0 0
124 7 2 N 6.90614 16.5867 1.89383 0 0 0
125 7 3 C 6.72275 15.8176 0.697862 0 0 0
131 7 4 C 0.387096 15.0376 0.188637 0 0 0
135 7 15 H 0.454392 16.7647 2.19955 0 0 0
140 7 5 H 1.35606 14.9768 0.667254 0 0 0
149 8 9 O 1.12957 12.0644 2.68696 0 0 0
158 8 10 H 0.234688 12.5267 2.89549 0 0 0
159 8 7 H 6.35787 11.9427 1.27959 0 0 0
6 1 13 C 5.65033 3.13371 5.91897 0 0 0
7 1 11 C 5.88238 2.24195 7.00535 0 0 0
8 1 8 C 4.7424 1.50072 7.50092 0 0 0
9 1 9 O 4.8173 0.748632 8.60962 0 0 0
10 1 6 C 3.49568 1.578 6.86557 0 0 0
16 1 14 H 6.56555 3.71121 5.56262 0 0 0
17 1 12 H 6.85514 2.31145 7.52917 0 0 0
18 1 10 H 3.88216 0.389496 8.83439 0 0 0
19 1 7 H 2.6896 1.02472 7.28529 0 0 0
21 2 16 C 2.8553 3.30686 9.57576 0 0 0
22 2 1 C 2.20469 3.9916 8.38139 0 0 0
23 2 20 O 0.931293 4.05531 8.42907 0 0 0
24 2 2 N 3.14624 4.75092 7.71654 0 0 0
25 2 3 C 2.92664 5.63599 6.57488 0 0 0
32 2 17 H 2.12406 3.18335 10.4856 0 0 0
33 2 18 H 3.02472 2.13885 9.40079 0 0 0
34 2 19 H 3.85455 3.78657 9.81352 0 0 0
35 2 15 H 4.0705 4.37391 7.93059 0 0 0
49 3 9 O 6.27522 5.04562 9.05255 0 0 0
58 3 10 H 7.17535 4.56453 8.91868 0 0 0
59 3 7 H 0.947924 5.08813 10.5802 0 0 0
64 4 2 N 0.466296 0.271309 10.1036 0 0 0
65 4 3 C 0.664343 1.17652 11.2107 0 0 0
71 4 4 C 7.0875 2.15237 11.5336 0 0 0
75 4 15 H 6.93772 -0.0199043 9.80912 0 0 0
80 4 5 H 6.14665 2.17094 10.9754 0 0 0
31 2 4 C 3.90049 6.55439 6.1301 0 0 0
40 2 5 H 4.84212 6.69146 6.6824 0 0 0
46 3 13 C 5.37202 7.37906 11.7533 0 0 0
47 3 11 C 5.16875 6.49143 10.6553 0 0 0
48 3 8 C 6.31777 5.71488 10.2259 0 0 0
50 3 6 C 0.104633 5.71634 10.9655 0 0 0
56 3 14 H 4.57105 8.1173 12.031 0 0 0
57 3 12 H 4.21093 6.48059 10.0971 0 0 0
61 4 16 C 0.724059 7.65585 7.84335 0 0 0
62 4 1 C 1.31598 8.17984 9.15207 0 0 0
63 4 20 O 2.59346 8.34486 9.11805 0 0 0
72 4 17 H 1.50909 7.70902 6.98001 0 0 0
73 4 18 H 0.608791 6.45968 7.87962 0 0 0
74 4 19 H 7.13219 8.18022 7.64803 0 0 0
87 5 11 C 5.92887 10.7421 7.0923 0 0 0
88 5 8 C 4.78498 9.92839 7.43023 0 0 0
89 5 9 O 4.8204 9.12311 8.52707 0 0 0
90 5 6 C 3.553 10.022 6.75644 0 0 0
97 5 12 H 6.85685 10.812 7.66333 0 0 0
98 5 10 H 3.83926 8.88657 8.74439 0 0 0
99 5 7 H 2.67607 9.44062 7.04507 0 0 0
113 6 18 H 3.21757 10.6548 9.44377 0 0 0
144 8 2 N 0.385868 8.89437 9.89597 0 0 0
145 8 3 C 0.608226 9.74044 11.0776 0 0 0
151 8 4 C 6.958 10.5672 11.5734 0 0 0
155 8 15 H 6.8021 8.68193 9.6741 0 0 0
160 8 5 H 6.01106 10.4961 11.0543 0 0 0
86 5 13 C 5.69893 11.6569 6.02135 0 0 0
96 5 14 H 6.52859 12.2484 5.62322 0 0 0
101 6 16 C 2.93715 11.805 9.64809 0 0 0
102 6 1 C 2.28683 12.5523 8.46073 0 0 0
103 6 20 O 0.997747 12.6221 8.50783 0 0 0
104 6 2 N 3.22162 13.3739 7.80779 0 0 0
105 6 3 C 3.04259 14.2186 6.64122 0 0 0
111 6 4 C 4.05486 15.0541 6.15455 0 0 0
112 6 17 H 2.11206 11.6843 10.5157 0 0 0
114 6 19 H 3.83242 12.3824 10.0161 0 0 0
115 6 15 H 4.1577 13.1587 8.0557 0 0 0
120 6 5 H 5.03571 15.0972 6.64867 0 0 0
126 7 13 C 5.4542 15.8772 11.8118 0 0 0
127 7 11 C 5.19386 15.0235 10.7072 0 0 0
128 7 8 C 6.33332 14.242 10.2078 0 0 0
129 7 9 O 6.20134 13.5554 9.05015 0 0 0
130 7 6 C 0.176116 14.2765 10.8936 0 0 0
136 7 14 H 4.55889 16.4754 12.1748 0 0 0
137 7 12 H 4.23063 15.0759 10.1289 0 0 0
138 7 10 H 7.09154 13.0863 8.83112 0 0 0
139 7 7 H 1.06518 13.6731 10.5902 0 0 0
141 8 16 C 0.885121 16.1592 8.09538 0 0 0
142 8 1 C 1.45315 16.89 9.2796 0 0 0
143 8 20 O 2.72478 16.9172 9.40311 0 0 0
152 8 17 H 1.53924 16.2046 7.12951 0 0 0
153 8 18 H 0.963901 14.9784 8.24344 0 0 0
154 8 19 H 7.19349 16.4007 7.93597 0 0 0
ITEM: TIMESTEP
50
ITEM: NUMBER OF ATOMS
160
ITEM: BOX BOUNDS xy xz yz pp pp pp
0.0000000000000000e+00 7.3985000000000003e+00 0.0000000000000000e+00
0.0000000000000000e+00 1.7152201000000002e+01 0.0000000000000000e+00
0.0000000000000000e+00 1.1820100000000000e+01 0.0000000000000000e+00
ITEM: ATOMS id mol type element x y z ix iy iz
1 1 16 C 4.41294 5.32418 2.0982 0 0 0
2 1 1 C 5.14532 4.77287 3.2972 0 0 0
3 1 20 O 6.37704 4.64718 3.28042 0 0 0
4 1 2 N 4.31928 4.08182 4.1488 0 0 0
5 1 3 C 4.59009 3.22998 5.30025 0 0 0
11 1 4 C 3.4437 2.64574 5.96028 0 0 0
12 1 17 H 4.91382 5.07805 1.21717 0 0 0
14 1 19 H 3.46634 4.81949 1.966 0 0 0
15 1 15 H 3.33506 4.04163 3.87099 0 0 0
20 1 5 H 2.45622 2.97328 5.57194 0 0 0
26 2 13 C 1.31364 5.68091 5.83273 0 0 0
36 2 14 H 0.437794 5.02485 6.18551 0 0 0
41 3 16 C 6.6516 0.958356 3.78147 0 0 0
42 3 1 C 5.95666 0.46832 2.52097 0 0 0
43 3 20 O 4.71967 0.55561 2.41771 0 0 0
52 3 17 H 6.02856 0.879107 4.61665 0 0 0
53 3 18 H 7.09724 1.86561 3.65296 0 0 0
54 3 19 H 0.00827869 0.312151 4.08814 0 0 0
66 4 13 C 2.20638 1.16427 0.159098 0 0 0
67 4 11 C 2.33711 2.16753 1.13911 0 0 0
68 4 8 C 1.2694 2.98932 1.55181 0 0 0
69 4 9 O 1.41686 3.58776 2.77052 0 0 0
70 4 6 C 0.042822 2.95825 0.890699 1 0 0
76 4 14 H 3.00758 0.427877 11.6664 0 0 0
77 4 12 H 3.2487 2.31464 1.72831 0 0 0
78 4 10 H 0.598317 3.99655 2.98858 0 0 0
79 4 7 H 6.53331 3.63067 1.11817 0 0 0
13 1 18 H 4.20975 6.30771 2.24694 0 0 0
27 2 11 C 1.22965 6.57699 4.72488 0 0 0
28 2 8 C 2.32936 7.27081 4.19018 0 0 0
29 2 9 O 2.2092 7.74207 2.90477 0 0 0
30 2 6 C 3.54997 7.24688 4.83696 0 0 0
37 2 12 H 0.337793 6.67092 4.12679 0 0 0
38 2 10 H 3.04023 8.13072 2.64819 0 0 0
39 2 7 H 4.5011 7.78648 4.49377 0 0 0
44 3 2 N 6.58103 8.34006 1.74215 0 0 0
45 3 3 C 6.32993 7.44111 0.620374 0 0 0
51 3 4 C 0.0683871 6.7158 0.0645974 0 0 0
55 3 15 H 0.184206 8.3405 1.94828 0 0 0
60 3 5 H 1.03899 6.93876 0.545577 0 0 0
91 5 4 C 3.56923 11.0148 5.83044 0 0 0
100 5 5 H 2.6096 11.3004 5.3874 0 0 0
121 7 16 C 6.50582 9.59367 3.73903 0 0 0
122 7 1 C 5.80684 9.22606 2.46076 0 0 0
123 7 20 O 4.57047 9.19691 2.41685 0 0 0
132 7 17 H 5.92281 9.38245 4.57335 0 0 0
133 7 18 H 6.85558 10.572 3.72836 0 0 0
134 7 19 H -0.055553 8.95959 3.9127 0 0 0
146 8 13 C 2.11326 9.86128 11.5991 0 0 -1
147 8 11 C 2.23017 10.7929 0.852607 0 0 0
148 8 8 C 1.12434 11.367 1.53225 0 0 0
150 8 6 C 7.2263 11.1333 1.04597 0 0 0
156 8 14 H 3.0152 9.33519 11.1413 0 0 0
157 8 12 H 3.19516 11.0225 1.30304 0 0 0
81 5 16 C 4.50376 14.0081 2.33442 0 0 0
82 5 1 C 5.24591 13.5417 3.52797 0 0 0
83 5 20 O 6.50158 13.4367 3.4576 0 0 0
84 5 2 N 4.45837 12.7313 4.30125 0 0 0
85 5 3 C 4.70039 11.7353 5.31253 0 0 0
92 5 17 H 4.89212 13.5851 1.49243 0 0 0
93 5 18 H 4.51073 15.0369 2.34957 0 0 0
94 5 19 H 3.48902 13.7025 2.34498 0 0 0
95 5 15 H 3.49019 12.6488 3.98243 0 0 0
106 6 13 C 1.3891 14.4285 6.07041 0 0 0
107 6 11 C 1.28938 15.293 4.96695 0 0 0
108 6 8 C 2.3982 15.8352 4.31523 0 0 0
109 6 9 O 2.2214 16.3 3.01662 0 0 0
110 6 6 C 3.67531 15.6973 4.87733 0 0 0
116 6 14 H 0.511223 13.8851 6.53516 0 0 0
117 6 12 H 0.341644 15.43 4.46698 0 0 0
118 6 10 H 3.0172 16.6944 2.70511 0 0 0
119 6 7 H 4.65714 16.1139 4.39132 0 0 0
124 7 2 N 6.70024 16.698 1.81736 0 0 0
125 7 3 C 6.41403 15.7899 0.66565 0 0 0
131 7 4 C 0.16856 15.146 0.0569579 0 0 0
135 7 15 H 0.261002 16.5802 2.16303 0 0 0
140 7 5 H 1.14063 15.361 0.520877 0 0 0
149 8 9 O 1.33627 11.8999 2.77585 0 0 0
158 8 10 H 0.527803 12.3282 3.04728 0 0 0
159 8 7 H 6.28345 11.5349 1.53231 0 0 0
6 1 13 C 5.88407 2.91295 5.80245 0 0 0
7 1 11 C 5.96117 1.95946 6.8513 0 0 0
8 1 8 C 4.83915 1.4855 7.55344 0 0 0
9 1 9 O 5.07727 0.913824 8.79043 0 0 0
10 1 6 C 3.56532 1.7785 7.06589 0 0 0
16 1 14 H 6.7918 3.32859 5.28071 0 0 0
17 1 12 H 6.87602 1.66837 7.32179 0 0 0
18 1 10 H 4.26444 0.548804 9.12085 0 0 0
19 1 7 H 2.61625 1.38644 7.5844 0 0 0
21 2 16 C 2.82394 3.27615 9.60992 0 0 0
22 2 1 C 2.1405 3.78468 8.3632 0 0 0
23 2 20 O 0.906165 3.818 8.30002 0 0 0
24 2 2 N 2.87594 4.72835 7.67531 0 0 0
25 2 3 C 2.58483 5.61008 6.52692 0 0 0
32 2 17 H 2.25264 3.49836 10.4642 0 0 0
33 2 18 H 3.03582 2.27725 9.52998 0 0 0
34 2 19 H 3.73454 3.78754 9.77399 0 0 0
35 2 15 H 3.83404 4.89179 7.99693 0 0 0
49 3 9 O 6.00697 5.17437 8.91715 0 0 0
58 3 10 H 6.81515 4.71649 8.70794 0 0 0
59 3 7 H 0.931281 5.40679 10.3581 0 0 0
64 4 2 N 0.744775 0.176874 10.1845 0 0 0
65 4 3 C 0.972911 1.08575 11.2702 0 0 0
71 4 4 C 7.30273 1.98064 11.6787 0 0 0
75 4 15 H 7.16246 0.195735 9.89798 0 0 0
80 4 5 H 6.34706 1.84115 11.1758 0 0 0
31 2 4 C 3.64933 6.40039 5.973 0 0 0
40 2 5 H 4.60442 6.27325 6.4575 0 0 0
46 3 13 C 5.06978 7.22794 11.815 0 0 0
47 3 11 C 4.99881 6.28793 10.7555 0 0 0
48 3 8 C 6.14819 5.70285 10.1657 0 0 0
50 3 6 C -0.0135233 5.85812 10.7518 0 0 0
56 3 14 H 4.1689 7.76651 0.411659 0 0 1
57 3 12 H 4.09361 6.06954 10.2319 0 0 0
61 4 16 C 0.553524 7.66941 7.88253 0 0 0
62 4 1 C 1.3402 8.05032 9.09437 0 0 0
63 4 20 O 2.58545 7.92127 9.1274 0 0 0
72 4 17 H 1.0891 7.84774 6.99393 0 0 0
73 4 18 H 0.178218 6.72676 7.95572 0 0 0
74 4 19 H 7.14134 8.30974 7.77113 0 0 0
87 5 11 C 6.05899 10.475 6.89765 0 0 0
88 5 8 C 4.91694 9.84689 7.45408 0 0 0
89 5 9 O 5.08951 9.21007 8.68095 0 0 0
90 5 6 C 3.65514 10.0837 6.89259 0 0 0
97 5 12 H 7.0067 10.297 7.39809 0 0 0
98 5 10 H 4.24736 8.84437 8.9285 0 0 0
99 5 7 H 2.66317 9.66983 7.27482 0 0 0
113 6 18 H 3.15359 10.8549 9.54435 0 0 0
144 8 2 N 0.5491 8.78728 9.94772 0 0 0
145 8 3 C 0.814094 9.62031 11.0723 0 0 0
151 8 4 C 7.09915 10.2605 11.732 0 0 0
155 8 15 H 6.97509 8.84591 9.62089 0 0 0
160 8 5 H 6.08559 10.0168 11.3957 0 0 0
86 5 13 C 5.97947 11.4615 5.88878 0 0 0
96 5 14 H 6.88992 12.0318 5.48852 0 0 0
101 6 16 C 2.98276 11.8629 9.61306 0 0 0
102 6 1 C 2.2754 12.3666 8.38027 0 0 0
103 6 20 O 1.04221 12.2881 8.31471 0 0 0
104 6 2 N 3.00223 13.3186 7.72494 0 0 0
105 6 3 C 2.71387 14.2383 6.65484 0 0 0
111 6 4 C 3.79524 14.9029 6.0506 0 0 0
112 6 17 H 2.4846 12.106 10.472 0 0 0
114 6 19 H 3.91242 12.3744 9.71856 0 0 0
115 6 15 H 3.98182 13.4093 7.99833 0 0 0
120 6 5 H 4.78604 14.6987 6.4378 0 0 0
126 7 13 C 5.14061 15.5705 0.0799589 0 0 1
127 7 11 C 5.06403 14.6769 10.8105 0 0 0
128 7 8 C 6.21843 14.1645 10.1509 0 0 0
129 7 9 O 6.0607 13.6961 8.88037 0 0 0
130 7 6 C 0.0798901 14.3554 10.7169 0 0 0
136 7 14 H 4.24057 16.0693 0.557679 0 0 1
137 7 12 H 4.16267 14.4903 10.2906 0 0 0
138 7 10 H 6.86365 13.2719 8.60618 0 0 0
139 7 7 H 1.02383 13.9696 10.2405 0 0 0
141 8 16 C 0.801247 16.1388 8.28878 0 0 0
142 8 1 C 1.53946 16.4664 9.50284 0 0 0
143 8 20 O 2.74805 16.6737 9.39499 0 0 0
152 8 17 H 1.25184 16.5092 7.4118 0 0 0
153 8 18 H 0.629766 15.1274 8.22122 0 0 0
154 8 19 H 7.24392 16.6076 8.27976 0 0 0
ITEM: TIMESTEP
75
ITEM: NUMBER OF ATOMS
160
ITEM: BOX BOUNDS xy xz yz pp pp pp
0.0000000000000000e+00 7.3985000000000003e+00 0.0000000000000000e+00
0.0000000000000000e+00 1.7152201000000002e+01 0.0000000000000000e+00
0.0000000000000000e+00 1.1820100000000000e+01 0.0000000000000000e+00
ITEM: ATOMS id mol type element x y z ix iy iz
1 1 16 C 4.46588 5.13724 2.31857 0 0 0
2 1 1 C 5.21903 5.00096 3.52185 0 0 0
3 1 20 O 6.41423 5.16834 3.46269 0 0 0
4 1 2 N 4.46077 4.26295 4.41952 0 0 0
5 1 3 C 4.72822 3.17655 5.31268 0 0 0
11 1 4 C 3.60827 2.64144 5.99325 0 0 0
12 1 17 H 5.04596 4.85999 1.42744 0 0 0
14 1 19 H 3.56676 4.50824 2.38408 0 0 0
15 1 15 H 3.48587 4.26763 4.14632 0 0 0
20 1 5 H 2.60974 2.96535 5.75537 0 0 0
26 2 13 C 1.11815 5.91658 5.91157 0 0 0
36 2 14 H 0.271686 5.44322 6.30649 0 0 0
41 3 16 C 6.58094 0.78597 3.46272 0 0 0
42 3 1 C 5.89993 0.577154 2.21386 0 0 0
43 3 20 O 4.72415 0.888419 2.19056 0 0 0
52 3 17 H 6.00063 0.324733 4.28203 0 0 0
53 3 18 H 6.72718 1.89561 3.52298 0 0 0
54 3 19 H 0.215836 0.372326 3.3135 0 0 0
66 4 13 C 2.52328 1.42148 0.0214763 0 0 0
67 4 11 C 2.59493 2.45438 0.982226 0 0 0
68 4 8 C 1.43218 3.02712 1.54792 0 0 0
69 4 9 O 1.52421 3.66883 2.73499 0 0 0
70 4 6 C 0.204377 2.82543 0.945946 1 0 0
76 4 14 H 3.38236 0.913043 11.538 0 0 0
77 4 12 H 3.54992 2.63525 1.4424 0 0 0
78 4 10 H 0.684993 4.13811 2.91949 0 0 0
79 4 7 H 6.73747 3.27955 1.30849 0 0 0
13 1 18 H 4.08275 6.18082 2.21023 0 0 0
27 2 11 C 1.04685 6.80869 4.82765 0 0 0
28 2 8 C 2.18788 7.23887 4.13848 0 0 0
29 2 9 O 2.0572 7.72491 2.86999 0 0 0
30 2 6 C 3.42365 7.10388 4.73912 0 0 0
37 2 12 H 0.0894817 6.94966 4.35481 0 0 0
38 2 10 H 2.7734 8.32768 2.64753 0 0 0
39 2 7 H 4.27179 7.46125 4.267 0 0 0
44 3 2 N 6.40838 8.30549 1.57481 0 0 0
45 3 3 C 6.15528 7.38451 0.54502 0 0 0
51 3 4 C -0.11494 6.80172 -0.0598476 0 0 0
55 3 15 H -0.0728637 8.17071 1.98024 0 0 0
60 3 5 H 0.872783 7.07913 0.27777 0 0 0
91 5 4 C 3.75088 11.1354 5.94593 0 0 0
100 5 5 H 2.77022 11.4877 5.66097 0 0 0
121 7 16 C 6.33894 9.35879 3.58716 0 0 0
122 7 1 C 5.63646 9.12013 2.34967 0 0 0
123 7 20 O 4.50011 9.50328 2.16828 0 0 0
132 7 17 H 5.70302 9.04442 4.43805 0 0 0
133 7 18 H 6.60886 10.4214 3.54575 0 0 0
134 7 19 H -0.0927098 8.82428 3.51596 0 0 0
146 8 13 C 2.29886 10.1611 11.4565 0 0 -1
147 8 11 C 2.37562 11.1219 0.684702 0 0 0
148 8 8 C 1.26209 11.4445 1.46885 0 0 0
150 8 6 C 7.39933 11.0756 1.03054 0 0 0
156 8 14 H 3.16712 9.78635 11.0165 0 0 0
157 8 12 H 3.33093 11.4821 1.03678 0 0 0
81 5 16 C 4.53551 13.8234 2.63699 0 0 0
82 5 1 C 5.33836 13.7005 3.80426 0 0 0
83 5 20 O 6.56465 13.8384 3.74378 0 0 0
84 5 2 N 4.62759 12.8929 4.6274 0 0 0
85 5 3 C 4.88972 11.7758 5.4284 0 0 0
92 5 17 H 5.01483 13.3283 1.74973 0 0 0
93 5 18 H 4.29937 14.8917 2.49505 0 0 0
94 5 19 H 3.54556 13.3548 2.8077 0 0 0
95 5 15 H 3.64786 12.9575 4.45468 0 0 0
106 6 13 C 1.22269 14.7015 6.18014 0 0 0
107 6 11 C 1.15121 15.6038 5.09578 0 0 0
108 6 8 C 2.25479 15.9722 4.33614 0 0 0
109 6 9 O 2.08788 16.343 3.03829 0 0 0
110 6 6 C 3.52212 15.7386 4.8459 0 0 0
116 6 14 H 0.35991 14.279 6.58772 0 0 0
117 6 12 H 0.17182 15.8488 4.7182 0 0 0
118 6 10 H 2.85226 16.8443 2.71402 0 0 0
119 6 7 H 4.37391 16.0575 4.33555 0 0 0
124 7 2 N 6.58357 16.7242 1.56846 0 0 0
125 7 3 C 6.27584 15.6682 0.671311 0 0 0
131 7 4 C 0.00288427 15.0524 0.0876588 0 0 0
135 7 15 H 0.084951 16.583 1.99828 0 0 0
140 7 5 H 0.966786 15.3643 0.461697 0 0 0
149 8 9 O 1.46021 12.0447 2.67062 0 0 0
158 8 10 H 0.682003 12.5272 2.95414 0 0 0
159 8 7 H 6.55519 11.3361 1.56991 0 0 0
6 1 13 C 6.00568 2.63919 5.64213 0 0 0
7 1 11 C 6.08822 1.69366 6.70884 0 0 0
8 1 8 C 4.97555 1.39327 7.52864 0 0 0
9 1 9 O 5.16085 0.845788 8.75744 0 0 0
10 1 6 C 3.73031 1.82038 7.12355 0 0 0
16 1 14 H 6.8676 3.0414 5.22566 0 0 0
17 1 12 H 7.05021 1.29792 7.02741 0 0 0
18 1 10 H 4.38142 0.341747 9.01034 0 0 0
19 1 7 H 2.88971 1.57529 7.67334 0 0 0
21 2 16 C 2.59869 3.54841 9.52572 0 0 0
22 2 1 C 1.92261 3.85808 8.30358 0 0 0
23 2 20 O 0.805824 3.41887 8.1188 0 0 0
24 2 2 N 2.66287 4.79561 7.58826 0 0 0
25 2 3 C 2.38359 5.74459 6.53897 0 0 0
32 2 17 H 2.10321 4.00955 10.3847 0 0 0
33 2 18 H 2.65108 2.45333 9.65304 0 0 0
34 2 19 H 3.63971 3.92189 9.39933 0 0 0
35 2 15 H 3.585 4.91858 7.95792 0 0 0
49 3 9 O 5.79786 5.06049 8.93232 0 0 0
58 3 10 H 6.60243 4.58368 8.69724 0 0 0
59 3 7 H 0.664462 5.68297 10.1468 0 0 0
64 4 2 N 0.929027 -0.0144765 10.5134 0 0 0
65 4 3 C 1.22479 1.0842 11.3442 0 0 0
71 4 4 C 7.52455 1.87808 11.7411 0 0 0
75 4 15 H 7.34696 -0.074366 10.3309 0 0 0
80 4 5 H 6.55829 1.67327 11.3093 0 0 0
31 2 4 C 3.49446 6.39151 5.96942 0 0 0
40 2 5 H 4.47784 6.21956 6.37503 0 0 0
46 3 13 C 4.87897 7.01435 11.8955 0 0 0
47 3 11 C 4.81909 6.08771 10.8326 0 0 0
48 3 8 C 5.9692 5.64866 10.1496 0 0 0
50 3 6 C -0.196748 6.0007 10.6278 0 0 0
56 3 14 H 4.01613 7.40579 0.506292 0 0 1
57 3 12 H 3.84899 5.83134 10.421 0 0 0
61 4 16 C 0.673461 7.76007 8.03199 0 0 0
62 4 1 C 1.37129 7.90519 9.23755 0 0 0
63 4 20 O 2.51062 7.49377 9.30362 0 0 0
72 4 17 H 1.19459 8.18167 7.16151 0 0 0
73 4 18 H 0.390508 6.67678 7.97669 0 0 0
74 4 19 H 7.04305 8.23149 8.12694 0 0 0
87 5 11 C 6.22288 10.2687 6.74529 0 0 0
88 5 8 C 5.06236 9.81242 7.42036 0 0 0
89 5 9 O 5.19289 9.21043 8.62579 0 0 0
90 5 6 C 3.823 10.148 6.95004 0 0 0
97 5 12 H 7.19455 9.95563 7.07899 0 0 0
98 5 10 H 4.40558 8.68803 8.79794 0 0 0
99 5 7 H 2.9745 9.78727 7.43418 0 0 0
113 6 18 H 3.09258 10.8985 9.33377 0 0 0
144 8 2 N 0.678111 8.7663 10.0357 0 0 0
145 8 3 C 0.995774 9.70735 11.0553 0 0 0
151 8 4 C 7.28515 10.2625 11.7001 0 0 0
155 8 15 H 7.15874 8.93222 9.68382 0 0 0
160 8 5 H 6.29834 9.98225 11.3681 0 0 0
86 5 13 C 6.16762 11.3078 5.79504 0 0 0
96 5 14 H 7.02718 11.7974 5.45008 0 0 0
101 6 16 C 2.92308 11.9931 9.3311 0 0 0
102 6 1 C 2.18822 12.2649 8.16688 0 0 0
103 6 20 O 1.06812 11.8088 8.02239 0 0 0
104 6 2 N 2.83486 13.3122 7.55442 0 0 0
105 6 3 C 2.53455 14.3322 6.61063 0 0 0
111 6 4 C 3.62397 14.948 6.00871 0 0 0
112 6 17 H 2.44598 12.4109 10.2535 0 0 0
114 6 19 H 3.98636 12.3156 9.22841 0 0 0
115 6 15 H 3.72697 13.5111 7.99656 0 0 0
120 6 5 H 4.61971 14.6834 6.32365 0 0 0
126 7 13 C 4.98873 15.2393 0.226178 0 0 1
127 7 11 C 4.92738 14.3802 10.9255 0 0 0
128 7 8 C 6.07552 14.0227 10.1919 0 0 0
129 7 9 O 5.93498 13.6652 8.89138 0 0 0
130 7 6 C -0.0682586 14.2838 10.7256 0 0 0
136 7 14 H 4.10252 15.6555 0.564616 0 0 1
137 7 12 H 3.95677 14.1413 10.5039 0 0 0
138 7 10 H 6.69827 13.139 8.62802 0 0 0
139 7 7 H 0.783447 14.002 10.2055 0 0 0
141 8 16 C 0.800915 16.2701 8.44668 0 0 0
142 8 1 C 1.61569 16.4022 9.61311 0 0 0
143 8 20 O 2.80331 16.1645 9.63912 0 0 0
152 8 17 H 1.35699 16.697 7.59762 0 0 0
153 8 18 H 0.442034 15.2389 8.44823 0 0 0
154 8 19 H 7.27768 16.8653 8.58735 0 0 0
ITEM: TIMESTEP
100
ITEM: NUMBER OF ATOMS
160
ITEM: BOX BOUNDS xy xz yz pp pp pp
0.0000000000000000e+00 7.3985000000000003e+00 0.0000000000000000e+00
0.0000000000000000e+00 1.7152201000000002e+01 0.0000000000000000e+00
0.0000000000000000e+00 1.1820100000000000e+01 0.0000000000000000e+00
ITEM: ATOMS id mol type element x y z ix iy iz
1 1 16 C 4.58645 5.14557 2.509 0 0 0
2 1 1 C 5.34069 5.08974 3.74979 0 0 0
3 1 20 O 6.51864 5.27911 3.68233 0 0 0
4 1 2 N 4.58214 4.35118 4.64072 0 0 0
5 1 3 C 4.79539 3.13649 5.44484 0 0 0
11 1 4 C 3.67426 2.56659 6.06788 0 0 0
12 1 17 H 5.25687 4.93477 1.6675 0 0 0
14 1 19 H 3.84049 4.41806 2.54451 0 0 0
15 1 15 H 3.6138 4.41619 4.40275 0 0 0
20 1 5 H 2.70214 2.97831 5.86866 0 0 0
26 2 13 C 1.02931 6.08723 5.86612 0 0 0
36 2 14 H 0.107675 5.70261 6.27381 0 0 0
41 3 16 C 6.51072 1.05952 3.1335 0 0 0
42 3 1 C 5.8162 0.518688 1.96847 0 0 0
43 3 20 O 4.71058 0.930342 1.71167 0 0 0
52 3 17 H 6.00868 0.64046 3.99332 0 0 0
53 3 18 H 6.44306 2.12849 3.10974 0 0 0
54 3 19 H 0.100156 0.711367 3.14049 0 0 0
66 4 13 C 2.60503 1.63445 -0.0149001 0 0 0
67 4 11 C 2.71592 2.74258 0.851161 0 0 0
68 4 8 C 1.59495 3.21067 1.49662 0 0 0
69 4 9 O 1.65273 3.69265 2.7814 0 0 0
70 4 6 C 0.348719 2.86736 0.987533 1 0 0
76 4 14 H 3.51227 1.13301 11.4835 0 0 0
77 4 12 H 3.69495 3.00078 1.19051 0 0 0
78 4 10 H 0.777047 4.05058 2.99879 0 0 0
79 4 7 H 6.86409 3.28635 1.45947 0 0 0
13 1 18 H 4.11145 6.10273 2.42186 0 0 0
27 2 11 C 0.922646 6.97377 4.78543 0 0 0
28 2 8 C 2.0263 7.35651 4.09192 0 0 0
29 2 9 O 1.92706 7.72794 2.78372 0 0 0
30 2 6 C 3.27117 7.18939 4.70579 0 0 0
37 2 12 H 7.3471 7.20212 4.38982 -1 0 0
38 2 10 H 2.76999 8.1455 2.50222 0 0 0
39 2 7 H 4.15963 7.5485 4.1855 0 0 0
44 3 2 N 6.30439 8.27261 1.49363 0 0 0
45 3 3 C 6.06474 7.26984 0.443558 0 0 0
51 3 4 C 7.16365 6.65231 11.653 -1 0 -1
55 3 15 H 7.17138 8.10845 1.96383 -1 0 0
60 3 5 H 0.760035 6.92274 0.142442 0 0 0
91 5 4 C 3.83402 11.0455 5.96502 0 0 0
100 5 5 H 2.8439 11.3965 5.69656 0 0 0
121 7 16 C 6.07509 9.44349 3.49373 0 0 0
122 7 1 C 5.48977 9.15592 2.16946 0 0 0
123 7 20 O 4.40829 9.58988 1.8965 0 0 0
132 7 17 H 5.39289 9.13353 4.28445 0 0 0
133 7 18 H 6.2518 10.5134 3.5532 0 0 0
134 7 19 H 7.01419 8.96948 3.56806 -1 0 0
146 8 13 C 2.34816 10.4227 11.4773 0 0 -1
147 8 11 C 2.4884 11.4123 0.630116 0 0 0
148 8 8 C 1.40396 11.7739 1.36383 0 0 0
150 8 6 C 0.137608 11.3545 0.971339 1 0 0
156 8 14 H 3.25084 10.0249 11.022 0 0 0
157 8 12 H 3.46985 11.7062 0.971129 0 0 0
81 5 16 C 4.68474 13.6992 2.81418 0 0 0
82 5 1 C 5.44824 13.8086 4.07062 0 0 0
83 5 20 O 6.65512 13.9188 3.98733 0 0 0
84 5 2 N 4.75869 13.155 5.02937 0 0 0
85 5 3 C 4.95 11.8121 5.59495 0 0 0
92 5 17 H 5.33935 13.4515 1.994 0 0 0
93 5 18 H 4.08968 14.5919 2.63548 0 0 0
94 5 19 H 4.01087 12.8757 2.92858 0 0 0
95 5 15 H 3.7819 13.3118 4.91839 0 0 0
106 6 13 C 1.12966 14.9359 6.10414 0 0 0
107 6 11 C 0.995342 15.8423 5.04444 0 0 0
108 6 8 C 2.09385 16.2044 4.33274 0 0 0
109 6 9 O 1.99926 16.4271 3.00063 0 0 0
110 6 6 C 3.35509 16.0665 4.91014 0 0 0
116 6 14 H 0.220334 14.4691 6.49567 0 0 0
117 6 12 H 0.0155549 16.0203 4.62697 0 0 0